1
2
/groups/sbinlab/giulio/miniconda3/envs/hoomd/lib/python3.8/hoomd/__init__.py
HOOMD-blue 2.9.3 CUDA (9.0) SINGLE MPI TBB SSE SSE2 
Compiled: 02/18/2022
Copyright (c) 2009-2019 The Regents of the University of Michigan.
-----
You are using HOOMD-blue. Please cite the following:
* J A Anderson, J Glaser, and S C Glotzer. "HOOMD-blue: A Python package for
  high-performance molecular dynamics and hard particle Monte Carlo
  simulations", Computational Materials Science 173 (2020) 109363
-----
-----
You are using MPCD. Please cite the following:
* M P Howard, A Z Panagiotopoulos, and A Nikoubashman. "Efficient mesoscale
  hydrodynamics: Multiparticle collision dynamics with massively parallel GPU
  acceleration", Computer Physics Communications 230 (2018) 10--20
-----
CUDA driver version is insufficient for CUDA runtime version
HOOMD-blue is running on the CPU
** starting run **
Time 00:00:03 | Step 10000 / 10000 | TPS 2982.71 | ETA 00:00:00
Average TPS: 2982.6
---------
-- Neighborlist stats:
18 normal updates / 100 forced updates / 0 dangerous updates
n_neigh_min: 0 / n_neigh_max: 28 / n_neigh_avg: 10.935
shortest rebuild period: 69
-- Cell list stats:
Dimension: 42, 42, 42
n_min    : 0 / n_max: 16 / n_avg: 0.00643829
** run complete **
** starting run **
Time 00:00:13 | Step 34665 / 69700000 | TPS 2466.4 | ETA 07:50:45
Time 00:00:23 | Step 52619 / 69700000 | TPS 1795.36 | ETA 10:46:33
Time 00:00:33 | Step 70077 / 69700000 | TPS 1745.79 | ETA 11:04:44
Time 00:00:43 | Step 85127 / 69700000 | TPS 1504.96 | ETA 12:50:56
Time 00:00:53 | Step 99995 / 69700000 | TPS 1486.76 | ETA 13:00:13
Time 00:01:03 | Step 113693 / 69700000 | TPS 1369.69 | ETA 14:06:44
Time 00:01:13 | Step 125104 / 69700000 | TPS 1141.09 | ETA 16:56:12
Time 00:01:23 | Step 135675 / 69700000 | TPS 1057.06 | ETA 18:16:49
Time 00:01:33 | Step 147431 / 69700000 | TPS 1175.59 | ETA 16:26:04
Time 00:01:43 | Step 158538 / 69700000 | TPS 1110.7 | ETA 17:23:30
Time 00:01:53 | Step 168844 / 69700000 | TPS 1030.57 | ETA 18:44:28
Time 00:02:03 | Step 179201 / 69700000 | TPS 1035.54 | ETA 18:38:54
Time 00:02:13 | Step 188748 / 69700000 | TPS 954.633 | ETA 20:13:34
Time 00:02:23 | Step 196343 / 69700000 | TPS 759.499 | ETA 25:25:12
Time 00:02:33 | Step 202506 / 69700000 | TPS 616.268 | ETA 31:19:31
Time 00:02:43 | Step 208701 / 69700000 | TPS 619.485 | ETA 31:09:35
Time 00:02:53 | Step 215092 / 69700000 | TPS 639.016 | ETA 30:12:17
Time 00:03:03 | Step 222063 / 69700000 | TPS 697.043 | ETA 27:41:15
Time 00:03:13 | Step 229698 / 69700000 | TPS 763.495 | ETA 25:16:29
Time 00:03:23 | Step 237443 / 69700000 | TPS 774.471 | ETA 24:54:50
Time 00:03:33 | Step 246385 / 69700000 | TPS 894.133 | ETA 21:34:37
Time 00:03:43 | Step 255339 / 69700000 | TPS 895.369 | ETA 21:32:39
Time 00:03:53 | Step 263051 / 69700000 | TPS 771.129 | ETA 25:00:45
Time 00:04:03 | Step 270481 / 69700000 | TPS 742.866 | ETA 25:57:41
Time 00:04:13 | Step 278340 / 69700000 | TPS 785.846 | ETA 24:32:20
Time 00:04:23 | Step 287739 / 69700000 | TPS 939.867 | ETA 20:30:53
Time 00:04:33 | Step 296744 / 69700000 | TPS 900.428 | ETA 21:24:38
Time 00:04:43 | Step 303876 / 69700000 | TPS 713.139 | ETA 27:01:50
Time 00:04:53 | Step 311444 / 69700000 | TPS 756.769 | ETA 25:28:10
Time 00:05:03 | Step 319133 / 69700000 | TPS 768.833 | ETA 25:04:01
Time 00:05:13 | Step 327609 / 69700000 | TPS 847.514 | ETA 22:44:13
Time 00:05:23 | Step 336248 / 69700000 | TPS 863.899 | ETA 22:18:11
Time 00:05:33 | Step 345145 / 69700000 | TPS 889.694 | ETA 21:39:13
Time 00:05:43 | Step 353717 / 69700000 | TPS 857.185 | ETA 22:28:19
Time 00:05:53 | Step 363499 / 69700000 | TPS 978.177 | ETA 19:41:23
Time 00:06:03 | Step 372526 / 69700000 | TPS 902.676 | ETA 21:20:02
Time 00:06:13 | Step 380603 / 69700000 | TPS 807.627 | ETA 23:50:30
Time 00:06:23 | Step 389265 / 69700000 | TPS 866.199 | ETA 22:13:37
Time 00:06:33 | Step 398619 / 69700000 | TPS 935.34 | ETA 20:34:52
Time 00:06:43 | Step 407631 / 69700000 | TPS 901.159 | ETA 21:21:32
Time 00:06:53 | Step 415923 / 69700000 | TPS 829.177 | ETA 23:12:37
Time 00:07:03 | Step 422970 / 69700000 | TPS 704.692 | ETA 27:18:28
Time 00:07:13 | Step 430410 / 69700000 | TPS 743.94 | ETA 25:51:51
Time 00:07:23 | Step 437398 / 69700000 | TPS 698.74 | ETA 27:32:04
Time 00:07:33 | Step 444940 / 69700000 | TPS 754.148 | ETA 25:30:32
Time 00:07:43 | Step 451517 / 69700000 | TPS 657.641 | ETA 29:14:58
Time 00:07:53 | Step 458205 / 69700000 | TPS 668.748 | ETA 28:45:39
Time 00:08:03 | Step 466250 / 69700000 | TPS 804.418 | ETA 23:54:26
Time 00:08:13 | Step 474439 / 69700000 | TPS 818.818 | ETA 23:29:03
Time 00:08:23 | Step 482510 / 69700000 | TPS 807.091 | ETA 23:49:21
Time 00:08:33 | Step 488701 / 69700000 | TPS 618.892 | ETA 31:03:50
Time 00:08:43 | Step 494635 / 69700000 | TPS 593.302 | ETA 32:24:04
Time 00:08:53 | Step 501282 / 69700000 | TPS 664.643 | ETA 28:55:14
Time 00:09:03 | Step 507867 / 69700000 | TPS 658.422 | ETA 29:11:27
Time 00:09:13 | Step 516314 / 69700000 | TPS 844.622 | ETA 22:45:10
Time 00:09:23 | Step 524858 / 69700000 | TPS 854.383 | ETA 22:29:25
Time 00:09:33 | Step 533731 / 69700000 | TPS 887.197 | ETA 21:39:20
Time 00:09:43 | Step 541661 / 69700000 | TPS 792.999 | ETA 24:13:31
Time 00:09:53 | Step 549600 / 69700000 | TPS 793.868 | ETA 24:11:45
Time 00:10:03 | Step 557039 / 69700000 | TPS 743.872 | ETA 25:49:10
Time 00:10:13 | Step 564250 / 69700000 | TPS 721.045 | ETA 26:38:02
Time 00:10:23 | Step 572986 / 69700000 | TPS 873.54 | ETA 21:58:54
Time 00:10:33 | Step 581750 / 69700000 | TPS 876.35 | ETA 21:54:30
Time 00:10:43 | Step 589525 / 69700000 | TPS 777.482 | ETA 24:41:30
Time 00:10:53 | Step 596958 / 69700000 | TPS 743.275 | ETA 25:49:30
Time 00:11:03 | Step 604482 / 69700000 | TPS 752.364 | ETA 25:30:37
Time 00:11:13 | Step 611280 / 69700000 | TPS 679.776 | ETA 28:13:54
Time 00:11:23 | Step 617007 / 69700000 | TPS 572.685 | ETA 33:30:29
Time 00:11:33 | Step 623038 / 69700000 | TPS 603.034 | ETA 31:49:09
Time 00:11:43 | Step 629277 / 69700000 | TPS 623.847 | ETA 30:45:17
Time 00:11:53 | Step 636881 / 69700000 | TPS 760.331 | ETA 25:13:52
Time 00:12:03 | Step 644693 / 69700000 | TPS 781.191 | ETA 24:33:17
Time 00:12:13 | Step 654710 / 69700000 | TPS 1001.64 | ETA 19:08:52
Time 00:12:23 | Step 665711 / 69700000 | TPS 1100.09 | ETA 17:25:53
Time 00:12:33 | Step 676769 / 69700000 | TPS 1105.77 | ETA 17:20:21
Time 00:12:43 | Step 686934 / 69700000 | TPS 1016.44 | ETA 18:51:36
Time 00:12:53 | Step 697733 / 69700000 | TPS 1079.73 | ETA 17:45:07
Time 00:13:03 | Step 708079 / 69700000 | TPS 1034.59 | ETA 18:31:25
Time 00:13:13 | Step 717615 / 69700000 | TPS 953.585 | ETA 20:05:40
Time 00:13:23 | Step 727203 / 69700000 | TPS 958.768 | ETA 19:58:58
Time 00:13:33 | Step 736522 / 69700000 | TPS 931.807 | ETA 20:33:30
Time 00:13:43 | Step 746096 / 69700000 | TPS 957.312 | ETA 20:00:28
Time 00:13:53 | Step 755970 / 69700000 | TPS 987.363 | ETA 19:23:46
Time 00:14:03 | Step 765881 / 69700000 | TPS 991.006 | ETA 19:19:19
Time 00:14:13 | Step 775581 / 69700000 | TPS 969.945 | ETA 19:44:20
Time 00:14:23 | Step 786736 / 69700000 | TPS 1115.46 | ETA 17:09:39
Time 00:14:33 | Step 796601 / 69700000 | TPS 986.481 | ETA 19:24:07
Time 00:14:43 | Step 807472 / 69700000 | TPS 1087.09 | ETA 17:36:13
Time 00:14:53 | Step 816863 / 69700000 | TPS 938.994 | ETA 20:22:38
Time 00:15:03 | Step 824370 / 69700000 | TPS 750.691 | ETA 25:29:09
Time 00:15:13 | Step 831622 / 69700000 | TPS 725.176 | ETA 26:22:47
Time 00:15:23 | Step 839609 / 69700000 | TPS 798.647 | ETA 23:57:01
Time 00:15:33 | Step 848912 / 69700000 | TPS 930.205 | ETA 20:33:37
Time 00:15:43 | Step 857511 / 69700000 | TPS 859.802 | ETA 22:14:27
Time 00:15:53 | Step 865065 / 69700000 | TPS 755.306 | ETA 25:18:55
Time 00:16:03 | Step 873109 / 69700000 | TPS 804.377 | ETA 23:46:05
Time 00:16:13 | Step 881610 / 69700000 | TPS 850.034 | ETA 22:29:19
Time 00:16:23 | Step 890834 / 69700000 | TPS 922.389 | ETA 20:43:18
Time 00:16:33 | Step 900270 / 69700000 | TPS 943.532 | ETA 20:15:17
Time 00:16:43 | Step 909033 / 69700000 | TPS 876.287 | ETA 21:48:22
Time 00:16:53 | Step 918564 / 69700000 | TPS 953.043 | ETA 20:02:50
Time 00:17:03 | Step 927025 / 69700000 | TPS 846.037 | ETA 22:34:48
Time 00:17:13 | Step 934393 / 69700000 | TPS 736.758 | ETA 25:55:35
Time 00:17:23 | Step 941794 / 69700000 | TPS 740.009 | ETA 25:48:35
Time 00:17:33 | Step 949657 / 69700000 | TPS 786.217 | ETA 24:17:24
Time 00:17:43 | Step 955966 / 69700000 | TPS 630.872 | ETA 30:16:06
Time 00:17:53 | Step 962187 / 69700000 | TPS 622.01 | ETA 30:41:49
Time 00:18:03 | Step 967948 / 69700000 | TPS 576.074 | ETA 33:08:31
Time 00:18:13 | Step 974057 / 69700000 | TPS 610.857 | ETA 31:15:07
Time 00:18:23 | Step 980987 / 69700000 | TPS 692.975 | ETA 27:32:45
Time 00:18:33 | Step 988010 / 69700000 | TPS 702.292 | ETA 27:10:39
Time 00:18:43 | Step 995177 / 69700000 | TPS 716.641 | ETA 26:37:50
Time 00:18:53 | Step 1002127 / 69700000 | TPS 694.905 | ETA 27:27:39
Time 00:19:03 | Step 1008796 / 69700000 | TPS 666.892 | ETA 28:36:41
Time 00:19:13 | Step 1015736 / 69700000 | TPS 693.931 | ETA 27:29:38
Time 00:19:23 | Step 1022370 / 69700000 | TPS 663.288 | ETA 28:45:41
Time 00:19:33 | Step 1028946 / 69700000 | TPS 657.571 | ETA 29:00:31
Time 00:19:43 | Step 1035831 / 69700000 | TPS 688.483 | ETA 27:42:12
Time 00:19:53 | Step 1041831 / 69700000 | TPS 599.984 | ETA 31:47:13
Time 00:20:03 | Step 1047577 / 69700000 | TPS 574.52 | ETA 33:11:35
Time 00:20:13 | Step 1054218 / 69700000 | TPS 664.008 | ETA 28:43:00
Time 00:20:23 | Step 1060814 / 69700000 | TPS 659.549 | ETA 28:54:29
Time 00:20:33 | Step 1067341 / 69700000 | TPS 652.673 | ETA 29:12:36
Time 00:20:43 | Step 1075582 / 69700000 | TPS 824.024 | ETA 23:07:59
Time 00:20:53 | Step 1085815 / 69700000 | TPS 1023.2 | ETA 18:37:38
Time 00:21:03 | Step 1095055 / 69700000 | TPS 923.981 | ETA 20:37:29
Time 00:21:13 | Step 1104966 / 69700000 | TPS 991.018 | ETA 19:13:36
Time 00:21:23 | Step 1113443 / 69700000 | TPS 847.559 | ETA 22:28:42
Time 00:21:33 | Step 1121558 / 69700000 | TPS 811.442 | ETA 23:28:34
Time 00:21:43 | Step 1130605 / 69700000 | TPS 904.691 | ETA 21:03:13
Time 00:21:53 | Step 1138742 / 69700000 | TPS 813.625 | ETA 23:24:26
Time 00:22:03 | Step 1146772 / 69700000 | TPS 802.943 | ETA 23:42:57
Time 00:22:13 | Step 1155407 / 69700000 | TPS 863.416 | ETA 22:03:07
Time 00:22:23 | Step 1163750 / 69700000 | TPS 834.278 | ETA 22:49:10
Time 00:22:33 | Step 1173608 / 69700000 | TPS 985.747 | ETA 19:18:37
Time 00:22:43 | Step 1181972 / 69700000 | TPS 836.395 | ETA 22:45:20
Time 00:22:53 | Step 1189653 / 69700000 | TPS 768.06 | ETA 24:46:39
Time 00:23:03 | Step 1197971 / 69700000 | TPS 831.765 | ETA 22:52:37
Time 00:23:13 | Step 1206197 / 69700000 | TPS 822.537 | ETA 23:07:51
Time 00:23:23 | Step 1214597 / 69700000 | TPS 839.98 | ETA 22:38:52
Time 00:23:33 | Step 1225024 / 69700000 | TPS 1042.62 | ETA 18:14:35
Time 00:23:43 | Step 1236372 / 69700000 | TPS 1134.7 | ETA 16:45:36
Time 00:23:53 | Step 1247010 / 69700000 | TPS 1063.73 | ETA 17:52:31
Time 00:24:03 | Step 1257556 / 69700000 | TPS 1054.59 | ETA 18:01:39
Time 00:24:13 | Step 1267428 / 69700000 | TPS 987.107 | ETA 19:15:26
Time 00:24:23 | Step 1279277 / 69700000 | TPS 1184.88 | ETA 16:02:24
Time 00:24:33 | Step 1290061 / 69700000 | TPS 1078.3 | ETA 17:37:22
Time 00:24:43 | Step 1300144 / 69700000 | TPS 1008.27 | ETA 18:50:38
Time 00:24:53 | Step 1311073 / 69700000 | TPS 1092.86 | ETA 17:22:58
Time 00:25:03 | Step 1321445 / 69700000 | TPS 1037.15 | ETA 18:18:49
Time 00:25:13 | Step 1331108 / 69700000 | TPS 966.202 | ETA 19:39:20
Time 00:25:23 | Step 1340976 / 69700000 | TPS 986.744 | ETA 19:14:37
Time 00:25:33 | Step 1349798 / 69700000 | TPS 882.142 | ETA 21:31:22
Time 00:25:43 | Step 1358405 / 69700000 | TPS 860.642 | ETA 22:03:27
Time 00:25:53 | Step 1367233 / 69700000 | TPS 882.733 | ETA 21:30:10
Time 00:26:03 | Step 1374748 / 69700000 | TPS 751.485 | ETA 25:15:20
Time 00:26:13 | Step 1382137 / 69700000 | TPS 738.818 | ETA 25:41:09
Time 00:26:23 | Step 1389106 / 69700000 | TPS 696.872 | ETA 27:13:45
Time 00:26:33 | Step 1395713 / 69700000 | TPS 660.695 | ETA 28:43:02
Time 00:26:43 | Step 1403782 / 69700000 | TPS 806.811 | ETA 23:30:49
Time 00:26:53 | Step 1410111 / 69700000 | TPS 632.835 | ETA 29:58:31
Time 00:27:03 | Step 1415507 / 69700000 | TPS 539.523 | ETA 35:09:24
Time 00:27:13 | Step 1420777 / 69700000 | TPS 526.91 | ETA 35:59:44
Time 00:27:23 | Step 1426720 / 69700000 | TPS 594.287 | ETA 31:54:42
Time 00:27:33 | Step 1432333 / 69700000 | TPS 561.285 | ETA 33:47:07
Time 00:27:43 | Step 1439226 / 69700000 | TPS 689.267 | ETA 27:30:33
Time 00:27:53 | Step 1445764 / 69700000 | TPS 653.741 | ETA 29:00:05
Time 00:28:03 | Step 1452116 / 69700000 | TPS 635.191 | ETA 29:50:44
Time 00:28:13 | Step 1458477 / 69700000 | TPS 636.082 | ETA 29:48:04
Time 00:28:23 | Step 1465001 / 69700000 | TPS 652.383 | ETA 29:03:13
Time 00:28:33 | Step 1472075 / 69700000 | TPS 707.395 | ETA 26:47:29
Time 00:28:43 | Step 1481494 / 69700000 | TPS 941.852 | ETA 20:07:10
Time 00:28:53 | Step 1490687 / 69700000 | TPS 919.265 | ETA 20:36:39
Time 00:29:03 | Step 1498111 / 69700000 | TPS 742.366 | ETA 25:31:11
Time 00:29:13 | Step 1505441 / 69700000 | TPS 732.957 | ETA 25:50:40
Time 00:29:23 | Step 1512028 / 69700000 | TPS 658.613 | ETA 28:45:32
Time 00:29:33 | Step 1519208 / 69700000 | TPS 717.986 | ETA 26:22:41
Time 00:29:43 | Step 1526648 / 69700000 | TPS 743.992 | ETA 25:27:11
Time 00:29:53 | Step 1534305 / 69700000 | TPS 765.642 | ETA 24:43:50
Time 00:30:03 | Step 1542510 / 69700000 | TPS 820.473 | ETA 23:04:30
Time 00:30:13 | Step 1550627 / 69700000 | TPS 811.681 | ETA 23:19:20
Time 00:30:23 | Step 1560141 / 69700000 | TPS 951.38 | ETA 19:53:42
Time 00:30:33 | Step 1569103 / 69700000 | TPS 896.101 | ETA 21:07:10
Time 00:30:43 | Step 1577048 / 69700000 | TPS 794.487 | ETA 23:49:04
Time 00:30:53 | Step 1584474 / 69700000 | TPS 742.378 | ETA 25:29:13
Time 00:31:03 | Step 1590672 / 69700000 | TPS 619.706 | ETA 30:31:45
Time 00:31:13 | Step 1596675 / 69700000 | TPS 600.128 | ETA 31:31:21
Time 00:31:23 | Step 1602579 / 69700000 | TPS 590.313 | ETA 32:02:38
Time 00:31:33 | Step 1609534 / 69700000 | TPS 695.491 | ETA 27:11:42
Time 00:31:43 | Step 1617507 / 69700000 | TPS 797.271 | ETA 23:43:14
Time 00:31:53 | Step 1625263 / 69700000 | TPS 775.591 | ETA 24:22:51
Time 00:32:03 | Step 1632587 / 69700000 | TPS 732.318 | ETA 25:49:07
Time 00:32:13 | Step 1640742 / 69700000 | TPS 815.434 | ETA 23:11:03
Time 00:32:23 | Step 1648569 / 69700000 | TPS 782.644 | ETA 24:09:10
Time 00:32:33 | Step 1656258 / 69700000 | TPS 768.899 | ETA 24:34:55
Time 00:32:43 | Step 1666415 / 69700000 | TPS 1015.68 | ETA 18:36:23
Time 00:32:53 | Step 1678278 / 69700000 | TPS 1186.27 | ETA 15:55:41
Time 00:33:03 | Step 1688873 / 69700000 | TPS 1059.44 | ETA 17:49:55
Time 00:33:13 | Step 1699275 / 69700000 | TPS 1040.2 | ETA 18:09:32
Time 00:33:23 | Step 1711312 / 69700000 | TPS 1203.68 | ETA 15:41:24
Time 00:33:33 | Step 1722414 / 69700000 | TPS 1110.11 | ETA 17:00:35
Time 00:33:43 | Step 1732905 / 69700000 | TPS 1049.02 | ETA 17:59:50
Time 00:33:53 | Step 1741391 / 69700000 | TPS 848.573 | ETA 22:14:45
Time 00:34:03 | Step 1748423 / 69700000 | TPS 703.18 | ETA 26:50:34
Time 00:34:13 | Step 1756064 / 69700000 | TPS 764.087 | ETA 24:42:01
Time 00:34:23 | Step 1763535 / 69700000 | TPS 747.094 | ETA 25:15:34
Time 00:34:33 | Step 1772795 / 69700000 | TPS 925.928 | ETA 20:22:41
Time 00:34:43 | Step 1783071 / 69700000 | TPS 1027.6 | ETA 18:21:33
Time 00:34:53 | Step 1791447 / 69700000 | TPS 837.555 | ETA 22:31:19
Time 00:35:03 | Step 1801059 / 69700000 | TPS 961.163 | ETA 19:37:22
Time 00:35:13 | Step 1811206 / 69700000 | TPS 1014.68 | ETA 18:35:06
Time 00:35:23 | Step 1821101 / 69700000 | TPS 989.299 | ETA 19:03:33
Time 00:35:33 | Step 1830947 / 69700000 | TPS 984.511 | ETA 19:08:56
Time 00:35:43 | Step 1839317 / 69700000 | TPS 836.99 | ETA 22:31:17
Time 00:35:53 | Step 1849642 / 69700000 | TPS 1032.46 | ETA 18:15:17
Time 00:36:03 | Step 1863146 / 69700000 | TPS 1350.37 | ETA 13:57:15
Time 00:36:13 | Step 1875400 / 69700000 | TPS 1225.37 | ETA 15:22:30
Time 00:36:23 | Step 1885490 / 69700000 | TPS 1008.93 | ETA 18:40:14
Time 00:36:33 | Step 1895492 / 69700000 | TPS 1000.14 | ETA 18:49:54
Time 00:36:43 | Step 1907030 / 69700000 | TPS 1153.79 | ETA 16:19:16
Time 00:36:53 | Step 1917255 / 69700000 | TPS 1022.46 | ETA 18:24:53
Time 00:37:03 | Step 1927338 / 69700000 | TPS 1008.26 | ETA 18:40:17
Time 00:37:13 | Step 1937763 / 69700000 | TPS 1042.5 | ETA 18:03:19
Time 00:37:23 | Step 1948006 / 69700000 | TPS 1024.28 | ETA 18:22:25
Time 00:37:33 | Step 1957153 / 69700000 | TPS 914.611 | ETA 20:34:27
Time 00:37:43 | Step 1966448 / 69700000 | TPS 929.474 | ETA 20:14:33
Time 00:37:53 | Step 1976701 / 69700000 | TPS 1025.13 | ETA 18:21:02
Time 00:38:03 | Step 1987013 / 69700000 | TPS 1031.18 | ETA 18:14:25
Time 00:38:13 | Step 1996493 / 69700000 | TPS 947.957 | ETA 19:50:20
Time 00:38:23 | Step 2006927 / 69700000 | TPS 1043.37 | ETA 18:01:19
Time 00:38:33 | Step 2018665 / 69700000 | TPS 1173.72 | ETA 16:01:03
Time 00:38:43 | Step 2028507 / 69700000 | TPS 984.114 | ETA 19:06:03
Time 00:38:53 | Step 2037576 / 69700000 | TPS 906.848 | ETA 20:43:32
Time 00:39:03 | Step 2045821 / 69700000 | TPS 824.405 | ETA 22:47:44
Time 00:39:13 | Step 2054679 / 69700000 | TPS 885.784 | ETA 21:12:47
Time 00:39:23 | Step 2064380 / 69700000 | TPS 970.083 | ETA 19:22:01
Time 00:39:33 | Step 2072132 / 69700000 | TPS 775.159 | ETA 24:14:03
Time 00:39:43 | Step 2080768 / 69700000 | TPS 863.532 | ETA 21:45:05
Time 00:39:53 | Step 2090140 / 69700000 | TPS 937.164 | ETA 20:02:23
Time 00:40:03 | Step 2099719 / 69700000 | TPS 957.882 | ETA 19:36:12
Time 00:40:13 | Step 2109202 / 69700000 | TPS 948.23 | ETA 19:48:01
Time 00:40:23 | Step 2119664 / 69700000 | TPS 1046.16 | ETA 17:56:38
Time 00:40:33 | Step 2131668 / 69700000 | TPS 1200.35 | ETA 15:38:10
Time 00:40:43 | Step 2143254 / 69700000 | TPS 1158.52 | ETA 16:11:52
Time 00:40:53 | Step 2153589 / 69700000 | TPS 1033.43 | ETA 18:09:21
Time 00:41:03 | Step 2164000 / 69700000 | TPS 1041.08 | ETA 18:01:11
Time 00:41:13 | Step 2173766 / 69700000 | TPS 976.521 | ETA 19:12:29
Time 00:41:23 | Step 2182648 / 69700000 | TPS 888.169 | ETA 21:06:58
Time 00:41:33 | Step 2192683 / 69700000 | TPS 1003.47 | ETA 18:41:13
Time 00:41:43 | Step 2201436 / 69700000 | TPS 875.279 | ETA 21:25:16
Time 00:41:53 | Step 2210241 / 69700000 | TPS 880.404 | ETA 21:17:37
Time 00:42:03 | Step 2220160 / 69700000 | TPS 991.865 | ETA 18:53:53
Time 00:42:13 | Step 2228681 / 69700000 | TPS 852.013 | ETA 21:59:50
Time 00:42:23 | Step 2236340 / 69700000 | TPS 765.858 | ETA 24:28:09
Time 00:42:33 | Step 2244023 / 69700000 | TPS 768.24 | ETA 24:23:25
Time 00:42:43 | Step 2251629 / 69700000 | TPS 760.541 | ETA 24:38:04
Time 00:42:53 | Step 2258857 / 69700000 | TPS 722.781 | ETA 25:55:07
Time 00:43:03 | Step 2265256 / 69700000 | TPS 639.895 | ETA 29:16:24
Time 00:43:13 | Step 2271328 / 69700000 | TPS 607.151 | ETA 30:50:57
Time 00:43:23 | Step 2277296 / 69700000 | TPS 596.758 | ETA 31:23:01
Time 00:43:33 | Step 2282835 / 69700000 | TPS 553.884 | ETA 33:48:37
Time 00:43:43 | Step 2287628 / 69700000 | TPS 479.271 | ETA 39:04:16
Time 00:43:53 | Step 2292643 / 69700000 | TPS 501.443 | ETA 37:20:26
Time 00:44:03 | Step 2299075 / 69700000 | TPS 643.141 | ETA 29:06:39
Time 00:44:13 | Step 2307812 / 69700000 | TPS 873.682 | ETA 21:25:35
Time 00:44:23 | Step 2316445 / 69700000 | TPS 863.226 | ETA 21:41:00
Time 00:44:33 | Step 2324705 / 69700000 | TPS 825.993 | ETA 22:39:28
Time 00:44:43 | Step 2334918 / 69700000 | TPS 1021.27 | ETA 18:19:22
Time 00:44:53 | Step 2346552 / 69700000 | TPS 1163.37 | ETA 16:04:55
Time 00:45:03 | Step 2357057 / 69700000 | TPS 1050.48 | ETA 17:48:26
Time 00:45:13 | Step 2366760 / 69700000 | TPS 970.25 | ETA 19:16:37
Time 00:45:23 | Step 2377090 / 69700000 | TPS 1032.98 | ETA 18:06:13
Time 00:45:33 | Step 2387612 / 69700000 | TPS 1052.18 | ETA 17:46:14
Time 00:45:43 | Step 2398899 / 69700000 | TPS 1128.7 | ETA 16:33:47
Time 00:45:53 | Step 2408831 / 69700000 | TPS 993.168 | ETA 18:49:14
Time 00:46:03 | Step 2417462 / 69700000 | TPS 863.082 | ETA 21:39:16
Time 00:46:13 | Step 2426990 / 69700000 | TPS 952.753 | ETA 19:36:49
Time 00:46:23 | Step 2436339 / 69700000 | TPS 934.877 | ETA 19:59:09
Time 00:46:33 | Step 2445454 / 69700000 | TPS 911.421 | ETA 20:29:50
Time 00:46:43 | Step 2453835 / 69700000 | TPS 838.058 | ETA 22:17:20
Time 00:46:53 | Step 2461045 / 69700000 | TPS 720.97 | ETA 25:54:21
Time 00:47:03 | Step 2467866 / 69700000 | TPS 682.08 | ETA 27:22:49
Time 00:47:13 | Step 2475775 / 69700000 | TPS 790.804 | ETA 23:36:47
Time 00:47:23 | Step 2483077 / 69700000 | TPS 730.188 | ETA 25:34:14
Time 00:47:33 | Step 2489339 / 69700000 | TPS 626.111 | ETA 29:49:06
Time 00:47:43 | Step 2496803 / 69700000 | TPS 746.355 | ETA 25:00:41
Time 00:47:53 | Step 2505436 / 69700000 | TPS 863.257 | ETA 21:37:18
Time 00:48:03 | Step 2512452 / 69700000 | TPS 701.521 | ETA 26:36:14
Time 00:48:13 | Step 2517769 / 69700000 | TPS 531.672 | ETA 35:06:00
Time 00:48:23 | Step 2523785 / 69700000 | TPS 601.548 | ETA 31:01:12
Time 00:48:33 | Step 2531144 / 69700000 | TPS 735.848 | ETA 25:21:20
Time 00:48:43 | Step 2538969 / 69700000 | TPS 782.422 | ETA 23:50:37
Time 00:48:53 | Step 2545503 / 69700000 | TPS 653.387 | ETA 28:32:58
Time 00:49:03 | Step 2552205 / 69700000 | TPS 670.177 | ETA 27:49:54
Time 00:49:13 | Step 2559615 / 69700000 | TPS 740.909 | ETA 25:10:18
Time 00:49:23 | Step 2566842 / 69700000 | TPS 722.61 | ETA 25:48:23
Time 00:49:33 | Step 2573135 / 69700000 | TPS 629.275 | ETA 29:37:53
Time 00:49:43 | Step 2579419 / 69700000 | TPS 628.377 | ETA 29:40:15
Time 00:49:53 | Step 2586205 / 69700000 | TPS 678.537 | ETA 27:28:29
Time 00:50:03 | Step 2593193 / 69700000 | TPS 698.725 | ETA 26:40:41
Time 00:50:13 | Step 2602173 / 69700000 | TPS 897.972 | ETA 20:45:21
Time 00:50:23 | Step 2611443 / 69700000 | TPS 926.976 | ETA 20:06:13
Time 00:50:33 | Step 2619706 / 69700000 | TPS 826.234 | ETA 22:33:08
Time 00:50:43 | Step 2627752 / 69700000 | TPS 804.574 | ETA 23:09:23
Time 00:50:53 | Step 2636176 / 69700000 | TPS 842.383 | ETA 22:06:52
Time 00:51:03 | Step 2644193 / 69700000 | TPS 801.678 | ETA 23:14:04
Time 00:51:13 | Step 2652756 / 69700000 | TPS 856.282 | ETA 21:45:00
Time 00:51:23 | Step 2665959 / 69700000 | TPS 1320.27 | ETA 14:06:12
Time 00:51:33 | Step 2677411 / 69700000 | TPS 1145.1 | ETA 16:15:29
Time 00:51:43 | Step 2686363 / 69700000 | TPS 895.099 | ETA 20:47:47
Time 00:51:53 | Step 2694801 / 69700000 | TPS 843.756 | ETA 22:03:32
Time 00:52:03 | Step 2705895 / 69700000 | TPS 1109.33 | ETA 16:46:31
Time 00:52:13 | Step 2717592 / 69700000 | TPS 1169.62 | ETA 15:54:28
Time 00:52:23 | Step 2728246 / 69700000 | TPS 1065.3 | ETA 17:27:46
Time 00:52:33 | Step 2736452 / 69700000 | TPS 820.525 | ETA 22:40:10
Time 00:52:43 | Step 2744313 / 69700000 | TPS 786.041 | ETA 23:39:40
Time 00:52:53 | Step 2753343 / 69700000 | TPS 902.944 | ETA 20:35:42
Time 00:53:03 | Step 2761511 / 69700000 | TPS 816.74 | ETA 22:45:58
Time 00:53:13 | Step 2769699 / 69700000 | TPS 818.77 | ETA 22:42:24
Time 00:53:23 | Step 2779480 / 69700000 | TPS 978.017 | ETA 19:00:24
Time 00:53:33 | Step 2788535 / 69700000 | TPS 905.494 | ETA 20:31:35
Time 00:53:43 | Step 2796373 / 69700000 | TPS 783.784 | ETA 23:42:39
Time 00:53:53 | Step 2804905 / 69700000 | TPS 853.141 | ETA 21:46:50
Time 00:54:03 | Step 2814030 / 69700000 | TPS 912.496 | ETA 20:21:40
Time 00:54:13 | Step 2823028 / 69700000 | TPS 899.779 | ETA 20:38:46
Time 00:54:23 | Step 2831944 / 69700000 | TPS 891.515 | ETA 20:50:04
Time 00:54:33 | Step 2839940 / 69700000 | TPS 799.502 | ETA 23:13:47
Time 00:54:43 | Step 2848435 / 69700000 | TPS 849.464 | ETA 21:51:38
Time 00:54:53 | Step 2855898 / 69700000 | TPS 746.204 | ETA 24:52:58
Time 00:55:03 | Step 2862739 / 69700000 | TPS 684.044 | ETA 27:08:29
Time 00:55:13 | Step 2868949 / 69700000 | TPS 620.994 | ETA 29:53:39
Time 00:55:23 | Step 2874734 / 69700000 | TPS 578.475 | ETA 32:05:19
Time 00:55:33 | Step 2881118 / 69700000 | TPS 638.394 | ETA 29:04:27
Time 00:55:43 | Step 2887251 / 69700000 | TPS 613.291 | ETA 30:15:41
Time 00:55:53 | Step 2893605 / 69700000 | TPS 635.369 | ETA 29:12:25
Time 00:56:03 | Step 2901123 / 69700000 | TPS 751.794 | ETA 24:40:52
Time 00:56:13 | Step 2908790 / 69700000 | TPS 766.653 | ETA 24:12:00
Time 00:56:23 | Step 2915904 / 69700000 | TPS 711.362 | ETA 26:04:42
Time 00:56:33 | Step 2923269 / 69700000 | TPS 736.472 | ETA 25:11:11
Time 00:56:43 | Step 2930937 / 69700000 | TPS 766.656 | ETA 24:11:31
Time 00:56:53 | Step 2938716 / 69700000 | TPS 777.817 | ETA 23:50:31
Time 00:57:03 | Step 2945700 / 69700000 | TPS 698.358 | ETA 26:33:07
Time 00:57:13 | Step 2954522 / 69700000 | TPS 882.159 | ETA 21:01:01
Time 00:57:23 | Step 2963306 / 69700000 | TPS 878.358 | ETA 21:06:18
Time 00:57:33 | Step 2972785 / 69700000 | TPS 947.806 | ETA 19:33:21
Time 00:57:43 | Step 2980850 / 69700000 | TPS 806.429 | ETA 22:58:54
Time 00:57:53 | Step 2989529 / 69700000 | TPS 867.823 | ETA 21:21:11
Time 00:58:03 | Step 2998791 / 69700000 | TPS 926.19 | ETA 20:00:16
Time 00:58:13 | Step 3007778 / 69700000 | TPS 898.689 | ETA 20:36:50
Time 00:58:23 | Step 3016957 / 69700000 | TPS 917.886 | ETA 20:10:48
Time 00:58:33 | Step 3023297 / 69700000 | TPS 633.95 | ETA 29:12:56
Time 00:58:43 | Step 3029599 / 69700000 | TPS 630.149 | ETA 29:23:21
Time 00:58:53 | Step 3036401 / 69700000 | TPS 680.124 | ETA 27:13:36
Time 00:59:03 | Step 3043854 / 69700000 | TPS 745.247 | ETA 24:50:41
Time 00:59:13 | Step 3051800 / 69700000 | TPS 794.511 | ETA 23:18:05
Time 00:59:23 | Step 3058783 / 69700000 | TPS 698.224 | ETA 26:30:43
Time 00:59:33 | Step 3066370 / 69700000 | TPS 758.63 | ETA 24:23:54
Time 00:59:43 | Step 3074283 / 69700000 | TPS 791.224 | ETA 23:23:25
Time 00:59:53 | Step 3081245 / 69700000 | TPS 696.113 | ETA 26:35:01
Time 01:00:03 | Step 3087170 / 69700000 | TPS 592.458 | ETA 31:13:54
Time 01:00:13 | Step 3093593 / 69700000 | TPS 642.266 | ETA 28:48:25
Time 01:00:23 | Step 3101363 / 69700000 | TPS 776.911 | ETA 23:48:42
Time 01:00:33 | Step 3108886 / 69700000 | TPS 752.211 | ETA 24:35:27
Time 01:00:43 | Step 3117083 / 69700000 | TPS 819.666 | ETA 22:33:51
Time 01:00:53 | Step 3125750 / 69700000 | TPS 866.666 | ETA 21:20:16
Time 01:01:03 | Step 3134827 / 69700000 | TPS 907.628 | ETA 20:22:19
Time 01:01:13 | Step 3144013 / 69700000 | TPS 918.524 | ETA 20:07:39
Time 01:01:23 | Step 3154247 / 69700000 | TPS 1023.31 | ETA 18:03:49
Time 01:01:33 | Step 3163902 / 69700000 | TPS 965.424 | ETA 19:08:39
Time 01:01:43 | Step 3173552 / 69700000 | TPS 964.988 | ETA 19:09:00
Time 01:01:53 | Step 3182558 / 69700000 | TPS 900.581 | ETA 20:31:00
Time 01:02:03 | Step 3189043 / 69700000 | TPS 648.423 | ETA 28:29:33
Time 01:02:13 | Step 3196810 / 69700000 | TPS 776.646 | ETA 23:47:08
Time 01:02:23 | Step 3204468 / 69700000 | TPS 765.76 | ETA 24:07:15
Time 01:02:33 | Step 3211647 / 69700000 | TPS 717.838 | ETA 25:43:43
Time 01:02:43 | Step 3220132 / 69700000 | TPS 848.497 | ETA 21:45:50
Time 01:02:53 | Step 3228123 / 69700000 | TPS 799.041 | ETA 23:06:29
Time 01:03:03 | Step 3235570 / 69700000 | TPS 744.656 | ETA 24:47:35
Time 01:03:13 | Step 3242267 / 69700000 | TPS 669.655 | ETA 27:34:01
Time 01:03:23 | Step 3248806 / 69700000 | TPS 653.854 | ETA 28:13:49
Time 01:03:33 | Step 3255725 / 69700000 | TPS 691.9 | ETA 26:40:31
Time 01:03:43 | Step 3262978 / 69700000 | TPS 725.267 | ETA 25:26:43
Time 01:03:53 | Step 3271062 / 69700000 | TPS 808.326 | ETA 22:49:40
Time 01:04:03 | Step 3277174 / 69700000 | TPS 611.162 | ETA 30:11:22
Time 01:04:13 | Step 3282337 / 69700000 | TPS 516.227 | ETA 35:44:19
Time 01:04:23 | Step 3288323 / 69700000 | TPS 598.521 | ETA 30:49:19
Time 01:04:33 | Step 3294609 / 69700000 | TPS 628.532 | ETA 29:20:51
Time 01:04:43 | Step 3300928 / 69700000 | TPS 631.896 | ETA 29:11:19
Time 01:04:53 | Step 3306316 / 69700000 | TPS 538.709 | ETA 34:14:05
Time 01:05:03 | Step 3311703 / 69700000 | TPS 538.644 | ETA 34:14:10
Time 01:05:13 | Step 3318045 / 69700000 | TPS 634.12 | ETA 29:04:43
Time 01:05:23 | Step 3325135 / 69700000 | TPS 708.945 | ETA 26:00:24
Time 01:05:33 | Step 3332250 / 69700000 | TPS 711.405 | ETA 25:54:51
Time 01:05:43 | Step 3338701 / 69700000 | TPS 644.886 | ETA 28:35:03
Time 01:05:53 | Step 3345237 / 69700000 | TPS 653.522 | ETA 28:12:14
Time 01:06:03 | Step 3350795 / 69700000 | TPS 555.76 | ETA 33:09:44
Time 01:06:13 | Step 3356709 / 69700000 | TPS 591.388 | ETA 31:09:42
Time 01:06:23 | Step 3363149 / 69700000 | TPS 643.95 | ETA 28:36:55
Time 01:06:33 | Step 3369587 / 69700000 | TPS 643.742 | ETA 28:37:18
Time 01:06:43 | Step 3378000 / 69700000 | TPS 841.254 | ETA 21:53:57
Time 01:06:53 | Step 3385599 / 69700000 | TPS 759.877 | ETA 24:14:29
Time 01:07:03 | Step 3392046 / 69700000 | TPS 644.635 | ETA 28:34:21
Time 01:07:13 | Step 3398579 / 69700000 | TPS 653.278 | ETA 28:11:30
Time 01:07:23 | Step 3404616 / 69700000 | TPS 603.601 | ETA 30:30:33
Time 01:07:33 | Step 3409997 / 69700000 | TPS 538.032 | ETA 34:13:28
Time 01:07:43 | Step 3415182 / 69700000 | TPS 518.474 | ETA 35:30:45
Time 01:07:53 | Step 3421199 / 69700000 | TPS 601.649 | ETA 30:36:01
Time 01:08:03 | Step 3427330 / 69700000 | TPS 613.028 | ETA 30:01:47
Time 01:08:13 | Step 3433831 / 69700000 | TPS 650.075 | ETA 28:18:56
Time 01:08:23 | Step 3441014 / 69700000 | TPS 718.241 | ETA 25:37:31
Time 01:08:33 | Step 3448346 / 69700000 | TPS 733.119 | ETA 25:06:09
Time 01:08:43 | Step 3455635 / 69700000 | TPS 728.837 | ETA 25:14:50
Time 01:08:53 | Step 3463247 / 69700000 | TPS 761.163 | ETA 24:10:20
Time 01:09:03 | Step 3470227 / 69700000 | TPS 697.931 | ETA 26:21:34
Time 01:09:13 | Step 3476634 / 69700000 | TPS 640.633 | ETA 28:42:51
Time 01:09:23 | Step 3484113 / 69700000 | TPS 747.839 | ETA 24:35:42
Time 01:09:33 | Step 3493630 / 69700000 | TPS 951.614 | ETA 19:19:32
Time 01:09:43 | Step 3502264 / 69700000 | TPS 863.295 | ETA 21:18:00
Time 01:09:53 | Step 3509336 / 69700000 | TPS 707.154 | ETA 26:00:01
Time 01:10:03 | Step 3517285 / 69700000 | TPS 794.836 | ETA 23:07:45
Time 01:10:13 | Step 3525725 / 69700000 | TPS 843.966 | ETA 21:46:48
Time 01:10:23 | Step 3534476 / 69700000 | TPS 875.059 | ETA 21:00:12
Time 01:10:33 | Step 3544156 / 69700000 | TPS 967.989 | ETA 18:59:03
Time 01:10:43 | Step 3553657 / 69700000 | TPS 950.056 | ETA 19:20:23
Time 01:10:53 | Step 3562638 / 69700000 | TPS 897.933 | ETA 20:27:35
Time 01:11:03 | Step 3571969 / 69700000 | TPS 933.007 | ETA 19:41:16
Time 01:11:13 | Step 3580795 / 69700000 | TPS 882.524 | ETA 20:48:40
Time 01:11:23 | Step 3589021 / 69700000 | TPS 822.549 | ETA 22:19:33
Time 01:11:33 | Step 3596898 / 69700000 | TPS 787.664 | ETA 23:18:42
Time 01:11:43 | Step 3606684 / 69700000 | TPS 978.58 | ETA 18:45:40
Time 01:11:53 | Step 3617706 / 69700000 | TPS 1102.12 | ETA 16:39:19
Time 01:12:03 | Step 3629015 / 69700000 | TPS 1130.9 | ETA 16:13:43
Time 01:12:13 | Step 3641143 / 69700000 | TPS 1212.74 | ETA 15:07:50
Time 01:12:23 | Step 3649774 / 69700000 | TPS 863.018 | ETA 21:15:34
Time 01:12:33 | Step 3658716 / 69700000 | TPS 894.143 | ETA 20:30:59
Time 01:12:43 | Step 3668239 / 69700000 | TPS 952.295 | ETA 19:15:39
Time 01:12:53 | Step 3680000 / 69700000 | TPS 1176.02 | ETA 15:35:38
Time 01:13:03 | Step 3691270 / 69700000 | TPS 1126.92 | ETA 16:16:14
Time 01:13:13 | Step 3701893 / 69700000 | TPS 1062.3 | ETA 17:15:27
Time 01:13:23 | Step 3711828 / 69700000 | TPS 993.436 | ETA 18:27:04
Time 01:13:33 | Step 3722463 / 69700000 | TPS 1063.49 | ETA 17:13:58
Time 01:13:43 | Step 3732724 / 69700000 | TPS 1026.06 | ETA 17:51:31
Time 01:13:53 | Step 3742619 / 69700000 | TPS 989.485 | ETA 18:30:58
Time 01:14:03 | Step 3751810 / 69700000 | TPS 919.079 | ETA 19:55:54
Time 01:14:13 | Step 3760541 / 69700000 | TPS 873.025 | ETA 20:58:49
Time 01:14:23 | Step 3769747 / 69700000 | TPS 920.544 | ETA 19:53:40
Time 01:14:33 | Step 3777497 / 69700000 | TPS 774.946 | ETA 23:37:47
Time 01:14:43 | Step 3785709 / 69700000 | TPS 821.149 | ETA 22:17:50
Time 01:14:53 | Step 3795567 / 69700000 | TPS 985.763 | ETA 18:34:16
Time 01:15:03 | Step 3804566 / 69700000 | TPS 899.818 | ETA 20:20:31
Time 01:15:13 | Step 3811727 / 69700000 | TPS 716.05 | ETA 25:33:36
Time 01:15:23 | Step 3818860 / 69700000 | TPS 713.259 | ETA 25:39:26
Time 01:15:33 | Step 3826184 / 69700000 | TPS 732.326 | ETA 24:59:11
Time 01:15:43 | Step 3833537 / 69700000 | TPS 735.299 | ETA 24:52:57
Time 01:15:53 | Step 3841029 / 69700000 | TPS 749.123 | ETA 24:25:14
Time 01:16:03 | Step 3848020 / 69700000 | TPS 699.025 | ETA 26:10:05
Time 01:16:13 | Step 3855490 / 69700000 | TPS 746.975 | ETA 24:29:08
Time 01:16:23 | Step 3862265 / 69700000 | TPS 677.458 | ETA 26:59:43
Time 01:16:33 | Step 3868615 / 69700000 | TPS 634.942 | ETA 28:48:00
Time 01:16:43 | Step 3874905 / 69700000 | TPS 628.928 | ETA 29:04:22
Time 01:16:53 | Step 3882040 / 69700000 | TPS 713.491 | ETA 25:37:27
Time 01:17:03 | Step 3888664 / 69700000 | TPS 662.34 | ETA 27:36:01
Time 01:17:13 | Step 3894826 / 69700000 | TPS 616.103 | ETA 29:40:08
Time 01:17:23 | Step 3900415 / 69700000 | TPS 558.828 | ETA 32:42:25
Time 01:17:33 | Step 3907307 / 69700000 | TPS 689.164 | ETA 26:31:07
Time 01:17:43 | Step 3916046 / 69700000 | TPS 873.817 | ETA 20:54:43
Time 01:17:53 | Step 3923787 / 69700000 | TPS 774.062 | ETA 23:36:15
Time 01:18:03 | Step 3931003 / 69700000 | TPS 721.593 | ETA 25:19:04
Time 01:18:13 | Step 3937570 / 69700000 | TPS 656.683 | ETA 27:49:03
Time 01:18:23 | Step 3944075 / 69700000 | TPS 650.484 | ETA 28:04:47
Time 01:18:33 | Step 3950270 / 69700000 | TPS 619.472 | ETA 29:28:58
Time 01:18:43 | Step 3957717 / 69700000 | TPS 744.656 | ETA 24:31:25
Time 01:18:53 | Step 3966091 / 69700000 | TPS 837.355 | ETA 21:48:21
Time 01:19:03 | Step 3975019 / 69700000 | TPS 892.747 | ETA 20:27:01
Time 01:19:13 | Step 3984199 / 69700000 | TPS 917.909 | ETA 19:53:12
Time 01:19:23 | Step 3993545 / 69700000 | TPS 934.541 | ETA 19:31:48
Time 01:19:33 | Step 4003060 / 69700000 | TPS 951.495 | ETA 19:10:45
Time 01:19:43 | Step 4011633 / 69700000 | TPS 857.193 | ETA 21:17:11
Time 01:19:53 | Step 4019620 / 69700000 | TPS 798.68 | ETA 22:50:36
Time 01:20:03 | Step 4029263 / 69700000 | TPS 964.292 | ETA 18:55:02
Time 01:20:13 | Step 4037213 / 69700000 | TPS 794.909 | ETA 22:56:44
Time 01:20:23 | Step 4044413 / 69700000 | TPS 719.903 | ETA 25:20:00
Time 01:20:33 | Step 4050278 / 69700000 | TPS 586.409 | ETA 31:05:52
Time 01:20:43 | Step 4056477 / 69700000 | TPS 619.894 | ETA 29:24:54
Time 01:20:53 | Step 4063561 / 69700000 | TPS 708.374 | ETA 25:44:17
Time 01:21:03 | Step 4070490 / 69700000 | TPS 692.81 | ETA 26:18:49
Time 01:21:13 | Step 4077797 / 69700000 | TPS 730.644 | ETA 24:56:54
Time 01:21:23 | Step 4086299 / 69700000 | TPS 850.183 | ETA 21:26:15
Time 01:21:33 | Step 4094966 / 69700000 | TPS 866.635 | ETA 21:01:40
Time 01:21:43 | Step 4102234 / 69700000 | TPS 726.777 | ETA 25:04:18
Time 01:21:53 | Step 4108473 / 69700000 | TPS 623.732 | ETA 29:12:39
Time 01:22:03 | Step 4114650 / 69700000 | TPS 617.653 | ETA 29:29:44
Time 01:22:13 | Step 4121110 / 69700000 | TPS 645.949 | ETA 28:12:03
Time 01:22:23 | Step 4127957 / 69700000 | TPS 684.608 | ETA 26:36:20
Time 01:22:33 | Step 4134669 / 69700000 | TPS 670.991 | ETA 27:08:34
Time 01:22:43 | Step 4142660 / 69700000 | TPS 799.088 | ETA 22:47:20
Time 01:22:53 | Step 4152277 / 69700000 | TPS 961.644 | ETA 18:56:02
Time 01:23:03 | Step 4161694 / 69700000 | TPS 941.674 | ETA 19:19:57
Time 01:23:13 | Step 4170274 / 69700000 | TPS 857.994 | ETA 21:12:55
Time 01:23:23 | Step 4179534 / 69700000 | TPS 925.998 | ETA 19:39:16
Time 01:23:33 | Step 4189593 / 69700000 | TPS 1005.88 | ETA 18:05:27
Time 01:23:43 | Step 4198753 / 69700000 | TPS 915.909 | ETA 19:51:54
Time 01:23:53 | Step 4207788 / 69700000 | TPS 903.443 | ETA 20:08:11
Time 01:24:03 | Step 4216683 / 69700000 | TPS 889.412 | ETA 20:27:05
Time 01:24:13 | Step 4225580 / 69700000 | TPS 889.648 | ETA 20:26:35
Time 01:24:23 | Step 4234040 / 69700000 | TPS 845.967 | ETA 21:29:45
Time 01:24:33 | Step 4241545 / 69700000 | TPS 750.403 | ETA 24:13:51
Time 01:24:43 | Step 4247764 / 69700000 | TPS 621.856 | ETA 29:14:13
Time 01:24:53 | Step 4254167 / 69700000 | TPS 640.273 | ETA 28:23:35
Time 01:25:03 | Step 4260965 / 69700000 | TPS 679.786 | ETA 26:44:24
Time 01:25:13 | Step 4269367 / 69700000 | TPS 840.127 | ETA 21:38:01
Time 01:25:23 | Step 4278549 / 69700000 | TPS 918.199 | ETA 19:47:29
Time 01:25:33 | Step 4287257 / 69700000 | TPS 870.781 | ETA 20:51:59
Time 01:25:43 | Step 4296681 / 69700000 | TPS 942.332 | ETA 19:16:45
Time 01:25:53 | Step 4304589 / 69700000 | TPS 790.753 | ETA 22:58:20
Time 01:26:03 | Step 4311741 / 69700000 | TPS 715.148 | ETA 25:23:53
Time 01:26:13 | Step 4318931 / 69700000 | TPS 718.92 | ETA 25:15:43
Time 01:26:23 | Step 4325786 / 69700000 | TPS 685.5 | ETA 26:29:27
Time 01:26:33 | Step 4332114 / 69700000 | TPS 632.795 | ETA 28:41:40
Time 01:26:43 | Step 4338957 / 69700000 | TPS 684.252 | ETA 26:32:01
Time 01:26:53 | Step 4345737 / 69700000 | TPS 677.999 | ETA 26:46:32
Time 01:27:03 | Step 4351360 / 69700000 | TPS 562.246 | ETA 32:17:07
Time 01:27:13 | Step 4357897 / 69700000 | TPS 653.626 | ETA 27:46:08
Time 01:27:23 | Step 4364738 / 69700000 | TPS 684.057 | ETA 26:31:51
Time 01:27:33 | Step 4371182 / 69700000 | TPS 644.199 | ETA 28:10:10
Time 01:27:43 | Step 4378495 / 69700000 | TPS 731.293 | ETA 24:48:43
Time 01:27:53 | Step 4386441 / 69700000 | TPS 794.517 | ETA 22:50:05
Time 01:28:03 | Step 4394456 / 69700000 | TPS 801.464 | ETA 22:38:02
Time 01:28:13 | Step 4402496 / 69700000 | TPS 803.954 | ETA 22:33:40
Time 01:28:23 | Step 4410939 / 69700000 | TPS 844.251 | ETA 21:28:53
Time 01:28:33 | Step 4421125 / 69700000 | TPS 1018.55 | ETA 17:48:10
Time 01:28:43 | Step 4430953 / 69700000 | TPS 982.741 | ETA 18:26:55
Time 01:28:53 | Step 4439097 / 69700000 | TPS 814.305 | ETA 22:15:43
Time 01:29:03 | Step 4446688 / 69700000 | TPS 759.029 | ETA 23:52:49
Time 01:29:13 | Step 4454428 / 69700000 | TPS 774 | ETA 23:24:56
Time 01:29:23 | Step 4461941 / 69700000 | TPS 751.258 | ETA 24:07:18
Time 01:29:33 | Step 4469885 / 69700000 | TPS 794.352 | ETA 22:48:37
Time 01:29:43 | Step 4478185 / 69700000 | TPS 829.942 | ETA 21:49:45
Time 01:29:53 | Step 4487071 / 69700000 | TPS 888.549 | ETA 20:23:12
Time 01:30:03 | Step 4494579 / 69700000 | TPS 750.781 | ETA 24:07:30
Time 01:30:13 | Step 4502765 / 69700000 | TPS 818.565 | ETA 22:07:28
Time 01:30:23 | Step 4510964 / 69700000 | TPS 819.871 | ETA 22:05:11
Time 01:30:33 | Step 4519328 / 69700000 | TPS 836.369 | ETA 21:38:52
Time 01:30:43 | Step 4527726 / 69700000 | TPS 839.744 | ETA 21:33:29
Time 01:30:53 | Step 4537198 / 69700000 | TPS 947.189 | ETA 19:06:35
Time 01:31:03 | Step 4547997 / 69700000 | TPS 1079.85 | ETA 16:45:34
Time 01:31:13 | Step 4558660 / 69700000 | TPS 1066.26 | ETA 16:58:13
Time 01:31:23 | Step 4569462 / 69700000 | TPS 1080.15 | ETA 16:44:57
Time 01:31:33 | Step 4578277 / 69700000 | TPS 881.488 | ETA 20:31:17
Time 01:31:43 | Step 4587553 / 69700000 | TPS 927.596 | ETA 19:29:54
Time 01:31:53 | Step 4597081 / 69700000 | TPS 952.747 | ETA 18:58:51
Time 01:32:03 | Step 4605851 / 69700000 | TPS 876.995 | ETA 20:37:04
Time 01:32:13 | Step 4613752 / 69700000 | TPS 790.024 | ETA 22:53:05
Time 01:32:23 | Step 4620276 / 69700000 | TPS 652.309 | ETA 27:42:48
Time 01:32:33 | Step 4626225 / 69700000 | TPS 594.876 | ETA 30:23:10
Time 01:32:43 | Step 4631876 / 69700000 | TPS 565.016 | ETA 31:59:21
Time 01:32:53 | Step 4637999 / 69700000 | TPS 612.22 | ETA 29:31:12
Time 01:33:03 | Step 4645779 / 69700000 | TPS 777.964 | ETA 23:13:41
Time 01:33:13 | Step 4653086 / 69700000 | TPS 730.629 | ETA 24:43:48
Time 01:33:23 | Step 4659256 / 69700000 | TPS 616.983 | ETA 29:16:57
Time 01:33:33 | Step 4665396 / 69700000 | TPS 613.996 | ETA 29:25:20
Time 01:33:43 | Step 4671740 / 69700000 | TPS 634.38 | ETA 28:28:26
Time 01:33:53 | Step 4678245 / 69700000 | TPS 650.452 | ETA 27:46:03
Time 01:34:03 | Step 4683884 / 69700000 | TPS 563.828 | ETA 32:01:51
Time 01:34:13 | Step 4689410 / 69700000 | TPS 552.522 | ETA 32:41:01
Time 01:34:23 | Step 4695289 / 69700000 | TPS 587.86 | ETA 30:42:58
Time 01:34:33 | Step 4702380 / 69700000 | TPS 709.039 | ETA 25:27:49
Time 01:34:43 | Step 4710093 / 69700000 | TPS 771.259 | ETA 23:24:24
Time 01:34:53 | Step 4717609 / 69700000 | TPS 751.495 | ETA 24:01:10
Time 01:35:03 | Step 4723078 / 69700000 | TPS 546.801 | ETA 33:00:30
Time 01:35:13 | Step 4728576 / 69700000 | TPS 549.773 | ETA 32:49:38
Time 01:35:23 | Step 4734336 / 69700000 | TPS 575.907 | ETA 31:20:05
Time 01:35:33 | Step 4739618 / 69700000 | TPS 528.174 | ETA 34:09:50
Time 01:35:43 | Step 4745381 / 69700000 | TPS 576.222 | ETA 31:18:44
Time 01:35:53 | Step 4752257 / 69700000 | TPS 687.585 | ETA 26:14:17
Time 01:36:03 | Step 4759880 / 69700000 | TPS 762.283 | ETA 23:39:51
Time 01:36:13 | Step 4767591 / 69700000 | TPS 771.016 | ETA 23:23:36
Time 01:36:23 | Step 4777434 / 69700000 | TPS 984.234 | ETA 18:19:22
Time 01:36:33 | Step 4787693 / 69700000 | TPS 1025.84 | ETA 17:34:37
Time 01:36:43 | Step 4798398 / 69700000 | TPS 1070.47 | ETA 16:50:29
Time 01:36:53 | Step 4808495 / 69700000 | TPS 1009.69 | ETA 17:51:08
Time 01:37:03 | Step 4818298 / 69700000 | TPS 980.211 | ETA 18:23:11
Time 01:37:13 | Step 4826513 / 69700000 | TPS 821.497 | ETA 21:56:09
Time 01:37:23 | Step 4833584 / 69700000 | TPS 707.017 | ETA 25:29:06
Time 01:37:33 | Step 4842018 / 69700000 | TPS 843.384 | ETA 21:21:42
Time 01:37:43 | Step 4849355 / 69700000 | TPS 733.692 | ETA 24:33:09
Time 01:37:53 | Step 4857533 / 69700000 | TPS 817.723 | ETA 22:01:36
Time 01:38:03 | Step 4866017 / 69700000 | TPS 848.399 | ETA 21:13:39
Time 01:38:13 | Step 4874641 / 69700000 | TPS 862.226 | ETA 20:53:03
Time 01:38:23 | Step 4884559 / 69700000 | TPS 991.731 | ETA 18:09:15
Time 01:38:33 | Step 4895628 / 69700000 | TPS 1106.82 | ETA 16:15:49
Time 01:38:43 | Step 4907560 / 69700000 | TPS 1193.14 | ETA 15:05:03
Time 01:38:53 | Step 4917383 / 69700000 | TPS 982.295 | ETA 18:19:10
Time 01:39:03 | Step 4928208 / 69700000 | TPS 1082.44 | ETA 16:37:18
Time 01:39:13 | Step 4938178 / 69700000 | TPS 996.906 | ETA 18:02:42
Time 01:39:23 | Step 4946843 / 69700000 | TPS 866.466 | ETA 20:45:32
Time 01:39:33 | Step 4956103 / 69700000 | TPS 925.935 | ETA 19:25:22
Time 01:39:43 | Step 4966836 / 69700000 | TPS 1073.27 | ETA 16:45:14
Time 01:39:53 | Step 4977245 / 69700000 | TPS 1040.81 | ETA 17:16:25
Time 01:40:03 | Step 4987509 / 69700000 | TPS 1026.31 | ETA 17:30:53
Time 01:40:13 | Step 4997672 / 69700000 | TPS 1016.23 | ETA 17:41:09
Time 01:40:23 | Step 5007931 / 69700000 | TPS 1025.81 | ETA 17:31:04
Time 01:40:33 | Step 5018070 / 69700000 | TPS 1013.82 | ETA 17:43:20
Time 01:40:43 | Step 5028551 / 69700000 | TPS 1048.07 | ETA 17:08:25
Time 01:40:53 | Step 5039009 / 69700000 | TPS 1045.78 | ETA 17:10:30
Time 01:41:03 | Step 5051001 / 69700000 | TPS 1199.06 | ETA 14:58:36
Time 01:41:13 | Step 5062236 / 69700000 | TPS 1123.46 | ETA 15:58:54
Time 01:41:23 | Step 5073222 / 69700000 | TPS 1098.52 | ETA 16:20:30
Time 01:41:33 | Step 5084765 / 69700000 | TPS 1154.25 | ETA 15:33:00
Time 01:41:43 | Step 5097147 / 69700000 | TPS 1238.16 | ETA 14:29:36
Time 01:41:53 | Step 5109019 / 69700000 | TPS 1187.15 | ETA 15:06:48
Time 01:42:03 | Step 5122193 / 69700000 | TPS 1317.34 | ETA 13:37:01
Time 01:42:13 | Step 5134471 / 69700000 | TPS 1227.71 | ETA 14:36:30
Time 01:42:23 | Step 5146443 / 69700000 | TPS 1197.15 | ETA 14:58:42
Time 01:42:33 | Step 5158126 / 69700000 | TPS 1168.26 | ETA 15:20:46
Time 01:42:43 | Step 5168201 / 69700000 | TPS 1007.3 | ETA 17:47:44
Time 01:42:53 | Step 5178198 / 69700000 | TPS 999.615 | ETA 17:55:46
Time 01:43:03 | Step 5188400 / 69700000 | TPS 1020.18 | ETA 17:33:55
Time 01:43:13 | Step 5198398 / 69700000 | TPS 999.7 | ETA 17:55:20
Time 01:43:23 | Step 5207819 / 69700000 | TPS 942.058 | ETA 19:00:58
Time 01:43:33 | Step 5216370 / 69700000 | TPS 855.035 | ETA 20:56:56
Time 01:43:43 | Step 5224680 / 69700000 | TPS 830.955 | ETA 21:33:11
Time 01:43:53 | Step 5233881 / 69700000 | TPS 920.014 | ETA 19:27:50
Time 01:44:03 | Step 5241844 / 69700000 | TPS 796.289 | ETA 22:29:08
Time 01:44:13 | Step 5250782 / 69700000 | TPS 893.79 | ETA 20:01:47
Time 01:44:23 | Step 5260557 / 69700000 | TPS 977.435 | ETA 18:18:47
Time 01:44:33 | Step 5269715 / 69700000 | TPS 915.74 | ETA 19:32:38
Time 01:44:43 | Step 5277544 / 69700000 | TPS 782.869 | ETA 22:51:30
Time 01:44:53 | Step 5283925 / 69700000 | TPS 638.061 | ETA 28:02:36
Time 01:45:03 | Step 5289836 / 69700000 | TPS 591.072 | ETA 30:16:11
Time 01:45:13 | Step 5295561 / 69700000 | TPS 572.447 | ETA 31:15:07
Time 01:45:23 | Step 5300571 / 69700000 | TPS 500.932 | ETA 35:42:39
Time 01:45:33 | Step 5306829 / 69700000 | TPS 625.751 | ETA 28:35:05
Time 01:45:43 | Step 5313137 / 69700000 | TPS 630.759 | ETA 28:21:18
Time 01:45:53 | Step 5320400 / 69700000 | TPS 726.235 | ETA 24:37:28
Time 01:46:03 | Step 5328307 / 69700000 | TPS 790.639 | ETA 22:36:57
Time 01:46:13 | Step 5337348 / 69700000 | TPS 904.042 | ETA 19:46:34
Time 01:46:23 | Step 5345582 / 69700000 | TPS 823.314 | ETA 21:42:45
Time 01:46:33 | Step 5355270 / 69700000 | TPS 968.718 | ETA 18:27:02
Time 01:46:43 | Step 5366308 / 69700000 | TPS 1103.75 | ETA 16:11:26
Time 01:46:53 | Step 5379629 / 69700000 | TPS 1332.1 | ETA 13:24:45
Time 01:47:03 | Step 5391223 / 69700000 | TPS 1159.4 | ETA 15:24:27
Time 01:47:13 | Step 5402127 / 69700000 | TPS 1090.36 | ETA 16:22:49
Time 01:47:23 | Step 5413287 / 69700000 | TPS 1115.9 | ETA 16:00:09
Time 01:47:33 | Step 5421681 / 69700000 | TPS 839.376 | ETA 21:16:18
Time 01:47:43 | Step 5430435 / 69700000 | TPS 875.354 | ETA 20:23:41
Time 01:47:53 | Step 5440729 / 69700000 | TPS 1029.32 | ETA 17:20:29
Time 01:48:03 | Step 5452827 / 69700000 | TPS 1209.74 | ETA 14:45:08
Time 01:48:13 | Step 5464555 / 69700000 | TPS 1172.71 | ETA 15:12:55
Time 01:48:23 | Step 5476755 / 69700000 | TPS 1219.92 | ETA 14:37:25
Time 01:48:33 | Step 5486368 / 69700000 | TPS 961.204 | ETA 18:33:25
Time 01:48:43 | Step 5495149 / 69700000 | TPS 878.097 | ETA 20:18:38
Time 01:48:53 | Step 5504290 / 69700000 | TPS 914.089 | ETA 19:30:29
Time 01:49:03 | Step 5513396 / 69700000 | TPS 910.509 | ETA 19:34:55
Time 01:49:13 | Step 5521985 / 69700000 | TPS 858.827 | ETA 20:45:27
Time 01:49:23 | Step 5530949 / 69700000 | TPS 896.352 | ETA 19:53:09
Time 01:49:33 | Step 5540612 / 69700000 | TPS 966.211 | ETA 18:26:43
Time 01:49:43 | Step 5549827 / 69700000 | TPS 921.418 | ETA 19:20:21
Time 01:49:53 | Step 5559372 / 69700000 | TPS 954.4 | ETA 18:40:05
Time 01:50:03 | Step 5567641 / 69700000 | TPS 826.887 | ETA 21:32:38
Time 01:50:13 | Step 5575397 / 69700000 | TPS 775.591 | ETA 22:57:58
Time 01:50:23 | Step 5582031 / 69700000 | TPS 663.336 | ETA 26:50:59
Time 01:50:33 | Step 5588816 / 69700000 | TPS 678.41 | ETA 26:15:02
Time 01:50:43 | Step 5595498 / 69700000 | TPS 668.18 | ETA 26:38:59
Time 01:50:53 | Step 5602090 / 69700000 | TPS 659.176 | ETA 27:00:39
Time 01:51:03 | Step 5609307 / 69700000 | TPS 721.612 | ETA 24:40:15
Time 01:51:13 | Step 5617169 / 69700000 | TPS 786.154 | ETA 22:38:34
Time 01:51:23 | Step 5624826 / 69700000 | TPS 765.624 | ETA 23:14:50
Time 01:51:33 | Step 5633213 / 69700000 | TPS 838.683 | ETA 21:13:09
Time 01:51:43 | Step 5642869 / 69700000 | TPS 965.599 | ETA 18:25:39
Time 01:51:53 | Step 5653505 / 69700000 | TPS 1063.55 | ETA 16:43:39
Time 01:52:03 | Step 5663154 / 69700000 | TPS 964.781 | ETA 18:26:14
Time 01:52:13 | Step 5671270 / 69700000 | TPS 811.546 | ETA 21:54:57
Time 01:52:23 | Step 5680337 / 69700000 | TPS 906.652 | ETA 19:36:51
Time 01:52:33 | Step 5689832 / 69700000 | TPS 949.448 | ETA 18:43:38
Time 01:52:43 | Step 5700356 / 69700000 | TPS 1052.38 | ETA 16:53:34
Time 01:52:53 | Step 5709884 / 69700000 | TPS 952.756 | ETA 18:39:23
Time 01:53:03 | Step 5719112 / 69700000 | TPS 922.765 | ETA 19:15:36
Time 01:53:13 | Step 5726873 / 69700000 | TPS 776.026 | ETA 22:53:56
Time 01:53:23 | Step 5734545 / 69700000 | TPS 767.15 | ETA 23:09:40
Time 01:53:33 | Step 5742985 / 69700000 | TPS 843.929 | ETA 21:03:04
Time 01:53:43 | Step 5751657 / 69700000 | TPS 867.196 | ETA 20:29:01
Time 01:53:53 | Step 5760938 / 69700000 | TPS 928.088 | ETA 19:08:13
Time 01:54:03 | Step 5769240 / 69700000 | TPS 830.171 | ETA 21:23:29
Time 01:54:13 | Step 5777020 / 69700000 | TPS 777.957 | ETA 22:49:27
Time 01:54:23 | Step 5784878 / 69700000 | TPS 785.793 | ETA 22:35:38
Time 01:54:33 | Step 5793732 / 69700000 | TPS 885.344 | ETA 20:03:02
Time 01:54:43 | Step 5803406 / 69700000 | TPS 967.311 | ETA 18:20:55
Time 01:54:53 | Step 5811767 / 69700000 | TPS 836.081 | ETA 21:13:33
Time 01:55:03 | Step 5819234 / 69700000 | TPS 746.599 | ETA 23:46:02
Time 01:55:13 | Step 5826218 / 69700000 | TPS 698.39 | ETA 25:24:18
Time 01:55:23 | Step 5833639 / 69700000 | TPS 742.003 | ETA 23:54:32
Time 01:55:33 | Step 5841397 / 69700000 | TPS 775.739 | ETA 22:51:59
Time 01:55:43 | Step 5849843 / 69700000 | TPS 844.591 | ETA 20:59:58
Time 01:55:53 | Step 5857675 / 69700000 | TPS 783.162 | ETA 22:38:38
Time 01:56:03 | Step 5864265 / 69700000 | TPS 658.924 | ETA 26:54:38
Time 01:56:13 | Step 5870919 / 69700000 | TPS 665.356 | ETA 26:38:52
Time 01:56:23 | Step 5877620 / 69700000 | TPS 670.066 | ETA 26:27:27
Time 01:56:33 | Step 5884085 / 69700000 | TPS 646.487 | ETA 27:25:11
Time 01:56:43 | Step 5891918 / 69700000 | TPS 783.227 | ETA 22:37:48
Time 01:56:53 | Step 5899764 / 69700000 | TPS 784.561 | ETA 22:35:19
Time 01:57:03 | Step 5907121 / 69700000 | TPS 735.66 | ETA 24:05:15
Time 01:57:13 | Step 5914769 / 69700000 | TPS 764.765 | ETA 23:10:05
Time 01:57:23 | Step 5922300 / 69700000 | TPS 753.075 | ETA 23:31:29
Time 01:57:33 | Step 5929830 / 69700000 | TPS 752.909 | ETA 23:31:38
Time 01:57:43 | Step 5936945 / 69700000 | TPS 711.453 | ETA 24:53:43
Time 01:57:53 | Step 5944513 / 69700000 | TPS 756.705 | ETA 23:24:14
Time 01:58:03 | Step 5952167 / 69700000 | TPS 765.346 | ETA 23:08:12
Time 01:58:13 | Step 5959986 / 69700000 | TPS 781.9 | ETA 22:38:39
Time 01:58:23 | Step 5967186 / 69700000 | TPS 719.951 | ETA 24:35:23
Time 01:58:33 | Step 5974656 / 69700000 | TPS 746.922 | ETA 23:41:57
Time 01:58:43 | Step 5981706 / 69700000 | TPS 704.947 | ETA 25:06:27
Time 01:58:53 | Step 5988894 / 69700000 | TPS 718.777 | ETA 24:37:18
Time 01:59:03 | Step 5996712 / 69700000 | TPS 781.775 | ETA 22:38:05
Time 01:59:13 | Step 6004289 / 69700000 | TPS 757.674 | ETA 23:21:07
Time 01:59:23 | Step 6011730 / 69700000 | TPS 744.086 | ETA 23:46:32
Time 01:59:33 | Step 6019000 / 69700000 | TPS 726.929 | ETA 24:20:02
Time 01:59:43 | Step 6025911 / 69700000 | TPS 691.036 | ETA 25:35:42
Time 01:59:53 | Step 6033099 / 69700000 | TPS 718.791 | ETA 24:36:14
Time 02:00:03 | Step 6041140 / 69700000 | TPS 804.083 | ETA 21:59:29
Time 02:00:13 | Step 6049752 / 69700000 | TPS 861.161 | ETA 20:31:52
Time 02:00:23 | Step 6058892 / 69700000 | TPS 913.945 | ETA 19:20:33
Time 02:00:33 | Step 6067551 / 69700000 | TPS 865.828 | ETA 20:24:53
Time 02:00:43 | Step 6075694 / 69700000 | TPS 814.216 | ETA 21:42:21
Time 02:00:53 | Step 6083442 / 69700000 | TPS 774.75 | ETA 22:48:32
Time 02:01:03 | Step 6090954 / 69700000 | TPS 751.131 | ETA 23:31:24
Time 02:01:13 | Step 6097827 / 69700000 | TPS 687.237 | ETA 25:42:27
Time 02:01:23 | Step 6105594 / 69700000 | TPS 776.672 | ETA 22:44:40
Time 02:01:33 | Step 6113242 / 69700000 | TPS 764.797 | ETA 23:05:42
Time 02:01:43 | Step 6121104 / 69700000 | TPS 786.164 | ETA 22:27:52
Time 02:01:53 | Step 6130555 / 69700000 | TPS 945.094 | ETA 18:41:02
Time 02:02:03 | Step 6139168 / 69700000 | TPS 861.275 | ETA 20:29:58
Time 02:02:13 | Step 6148283 / 69700000 | TPS 911.484 | ETA 19:22:03
Time 02:02:23 | Step 6159415 / 69700000 | TPS 1113.14 | ETA 15:51:22
Time 02:02:33 | Step 6170137 / 69700000 | TPS 1072.19 | ETA 16:27:32
Time 02:02:43 | Step 6178882 / 69700000 | TPS 874.436 | ETA 20:10:42
Time 02:02:53 | Step 6187382 / 69700000 | TPS 849.993 | ETA 20:45:21
Time 02:03:03 | Step 6195274 / 69700000 | TPS 789.151 | ETA 22:21:12
Time 02:03:13 | Step 6204639 / 69700000 | TPS 936.492 | ETA 18:50:01
Time 02:03:23 | Step 6214914 / 69700000 | TPS 1027.44 | ETA 17:09:49
Time 02:03:33 | Step 6224454 / 69700000 | TPS 953.95 | ETA 18:28:59
Time 02:03:43 | Step 6232522 / 69700000 | TPS 806.704 | ETA 21:51:15
Time 02:03:53 | Step 6240324 / 69700000 | TPS 780.118 | ETA 22:35:46
Time 02:04:03 | Step 6247742 / 69700000 | TPS 741.738 | ETA 23:45:45
Time 02:04:13 | Step 6255021 / 69700000 | TPS 727.873 | ETA 24:12:44
Time 02:04:23 | Step 6261850 / 69700000 | TPS 682.852 | ETA 25:48:21
Time 02:04:33 | Step 6268740 / 69700000 | TPS 688.948 | ETA 25:34:29
Time 02:04:43 | Step 6275566 / 69700000 | TPS 682.583 | ETA 25:48:38
Time 02:04:53 | Step 6282660 / 69700000 | TPS 709.321 | ETA 24:50:05
Time 02:05:03 | Step 6289792 / 69700000 | TPS 713.136 | ETA 24:41:57
Time 02:05:13 | Step 6297439 / 69700000 | TPS 764.629 | ETA 23:01:59
Time 02:05:23 | Step 6304267 / 69700000 | TPS 682.794 | ETA 25:47:27
Time 02:05:33 | Step 6310801 / 69700000 | TPS 653.348 | ETA 26:57:02
Time 02:05:43 | Step 6317209 / 69700000 | TPS 640.737 | ETA 27:28:41
Time 02:05:53 | Step 6324337 / 69700000 | TPS 712.757 | ETA 24:41:56
Time 02:06:03 | Step 6331489 / 69700000 | TPS 715.126 | ETA 24:36:51
Time 02:06:13 | Step 6338746 / 69700000 | TPS 725.675 | ETA 24:15:13
Time 02:06:23 | Step 6346170 / 69700000 | TPS 742.398 | ETA 23:42:16
Time 02:06:33 | Step 6354600 / 69700000 | TPS 842.969 | ETA 20:52:25
Time 02:06:43 | Step 6362446 / 69700000 | TPS 784.544 | ETA 22:25:31
Time 02:06:53 | Step 6369395 / 69700000 | TPS 694.817 | ETA 25:19:07
Time 02:07:03 | Step 6375865 / 69700000 | TPS 646.961 | ETA 27:11:19
Time 02:07:13 | Step 6381880 / 69700000 | TPS 601.494 | ETA 29:14:28
Time 02:07:23 | Step 6388000 / 69700000 | TPS 611.968 | ETA 28:44:16
Time 02:07:33 | Step 6394096 / 69700000 | TPS 609.589 | ETA 28:50:50
Time 02:07:43 | Step 6401173 / 69700000 | TPS 707.53 | ETA 24:51:04
Time 02:07:53 | Step 6408829 / 69700000 | TPS 765.532 | ETA 22:57:56
Time 02:08:03 | Step 6416942 / 69700000 | TPS 811.279 | ETA 21:40:04
Time 02:08:13 | Step 6424016 / 69700000 | TPS 707.337 | ETA 24:50:56
Time 02:08:23 | Step 6430472 / 69700000 | TPS 645.553 | ETA 27:13:28
Time 02:08:33 | Step 6437373 / 69700000 | TPS 690.059 | ETA 25:27:57
Time 02:08:43 | Step 6443939 / 69700000 | TPS 656.56 | ETA 26:45:44
Time 02:08:53 | Step 6449552 / 69700000 | TPS 561.262 | ETA 31:18:13
Time 02:09:03 | Step 6454740 / 69700000 | TPS 518.714 | ETA 33:52:06
Time 02:09:13 | Step 6460388 / 69700000 | TPS 564.763 | ETA 31:06:15
Time 02:09:23 | Step 6466848 / 69700000 | TPS 645.97 | ETA 27:11:28
Time 02:09:33 | Step 6471818 / 69700000 | TPS 496.969 | ETA 35:20:27
Time 02:09:43 | Step 6477187 / 69700000 | TPS 536.891 | ETA 32:42:37
Time 02:09:53 | Step 6483086 / 69700000 | TPS 589.825 | ETA 29:46:19
Time 02:10:03 | Step 6489285 / 69700000 | TPS 619.832 | ETA 28:19:40
Time 02:10:13 | Step 6496024 / 69700000 | TPS 673.859 | ETA 26:03:13
Time 02:10:23 | Step 6502515 / 69700000 | TPS 649.058 | ETA 27:02:48
Time 02:10:33 | Step 6508290 / 69700000 | TPS 577.467 | ETA 30:23:49
Time 02:10:43 | Step 6514441 / 69700000 | TPS 615.021 | ETA 28:32:17
Time 02:10:53 | Step 6521123 / 69700000 | TPS 668.11 | ETA 26:16:03
Time 02:11:03 | Step 6527227 / 69700000 | TPS 610.387 | ETA 28:44:56
Time 02:11:13 | Step 6533562 / 69700000 | TPS 633.462 | ETA 27:41:56
Time 02:11:23 | Step 6540490 / 69700000 | TPS 692.716 | ETA 25:19:36
Time 02:11:33 | Step 6547129 / 69700000 | TPS 663.87 | ETA 26:25:28
Time 02:11:43 | Step 6552818 / 69700000 | TPS 568.828 | ETA 30:50:12
Time 02:11:53 | Step 6558769 / 69700000 | TPS 595.022 | ETA 29:28:35
Time 02:12:03 | Step 6565387 / 69700000 | TPS 661.742 | ETA 26:30:06
Time 02:12:13 | Step 6572002 / 69700000 | TPS 661.449 | ETA 26:30:38
Time 02:12:23 | Step 6578367 / 69700000 | TPS 636.429 | ETA 27:33:00
Time 02:12:33 | Step 6584658 / 69700000 | TPS 629.092 | ETA 27:52:07
Time 02:12:43 | Step 6589977 / 69700000 | TPS 531.862 | ETA 32:57:38
Time 02:12:53 | Step 6595164 / 69700000 | TPS 518.613 | ETA 33:47:59
Time 02:13:03 | Step 6600332 / 69700000 | TPS 516.724 | ETA 33:55:14
Time 02:13:13 | Step 6606446 / 69700000 | TPS 611.382 | ETA 28:39:58
Time 02:13:23 | Step 6614011 / 69700000 | TPS 756.451 | ETA 23:09:57
Time 02:13:33 | Step 6621972 / 69700000 | TPS 796.009 | ETA 22:00:42
Time 02:13:43 | Step 6630559 / 69700000 | TPS 858.691 | ETA 20:24:08
Time 02:13:53 | Step 6640372 / 69700000 | TPS 981.074 | ETA 17:51:16
Time 02:14:03 | Step 6650153 / 69700000 | TPS 978.097 | ETA 17:54:21
Time 02:14:13 | Step 6661288 / 69700000 | TPS 1113.41 | ETA 15:43:37
Time 02:14:23 | Step 6670162 / 69700000 | TPS 887.306 | ETA 19:43:55
Time 02:14:33 | Step 6677851 / 69700000 | TPS 768.848 | ETA 22:46:09
Time 02:14:43 | Step 6684002 / 69700000 | TPS 615.048 | ETA 28:27:37
Time 02:14:53 | Step 6689471 / 69700000 | TPS 546.867 | ETA 32:00:21
Time 02:15:03 | Step 6694407 / 69700000 | TPS 493.533 | ETA 35:27:42
Time 02:15:13 | Step 6700063 / 69700000 | TPS 565.532 | ETA 30:56:39
Time 02:15:23 | Step 6706292 / 69700000 | TPS 622.86 | ETA 28:05:36
Time 02:15:33 | Step 6712876 / 69700000 | TPS 658.305 | ETA 26:34:40
Time 02:15:43 | Step 6719649 / 69700000 | TPS 677.23 | ETA 25:49:57
Time 02:15:53 | Step 6726145 / 69700000 | TPS 649.516 | ETA 26:55:55
Time 02:16:03 | Step 6732711 / 69700000 | TPS 656.537 | ETA 26:38:28
Time 02:16:13 | Step 6740852 / 69700000 | TPS 814.029 | ETA 21:29:02
Time 02:16:23 | Step 6749382 / 69700000 | TPS 852.914 | ETA 20:30:06
Time 02:16:33 | Step 6757785 / 69700000 | TPS 840.223 | ETA 20:48:31
Time 02:16:43 | Step 6766857 / 69700000 | TPS 907.115 | ETA 19:16:17
Time 02:16:53 | Step 6775578 / 69700000 | TPS 872.072 | ETA 20:02:35
Time 02:17:03 | Step 6785130 / 69700000 | TPS 955.126 | ETA 18:17:50
Time 02:17:13 | Step 6795109 / 69700000 | TPS 997.885 | ETA 17:30:38
Time 02:17:23 | Step 6804640 / 69700000 | TPS 953.03 | ETA 18:19:55
Time 02:17:33 | Step 6814687 / 69700000 | TPS 1004.67 | ETA 17:23:12
Time 02:17:43 | Step 6824797 / 69700000 | TPS 1010.99 | ETA 17:16:31
Time 02:17:53 | Step 6836295 / 69700000 | TPS 1149.77 | ETA 15:11:15
Time 02:18:03 | Step 6847907 / 69700000 | TPS 1161.15 | ETA 15:02:09
Time 02:18:13 | Step 6857946 / 69700000 | TPS 1003.87 | ETA 17:23:19
Time 02:18:23 | Step 6868644 / 69700000 | TPS 1069.77 | ETA 16:18:53
Time 02:18:33 | Step 6879816 / 69700000 | TPS 1117.11 | ETA 15:37:14
Time 02:18:43 | Step 6891603 / 69700000 | TPS 1178.65 | ETA 14:48:08
Time 02:18:53 | Step 6902462 / 69700000 | TPS 1085.85 | ETA 16:03:52
Time 02:19:03 | Step 6912282 / 69700000 | TPS 981.996 | ETA 17:45:38
Time 02:19:13 | Step 6921311 / 69700000 | TPS 902.831 | ETA 19:18:55
Time 02:19:23 | Step 6931587 / 69700000 | TPS 1027.57 | ETA 16:58:04
Time 02:19:33 | Step 6943561 / 69700000 | TPS 1197.39 | ETA 14:33:31
Time 02:19:43 | Step 6955098 / 69700000 | TPS 1153.63 | ETA 15:06:29
Time 02:19:53 | Step 6966090 / 69700000 | TPS 1099.2 | ETA 15:51:12
Time 02:20:03 | Step 6976919 / 69700000 | TPS 1082.82 | ETA 16:05:25
Time 02:20:13 | Step 6987916 / 69700000 | TPS 1099.68 | ETA 15:50:27
Time 02:20:23 | Step 6997120 / 69700000 | TPS 920.395 | ETA 18:55:26
Time 02:20:33 | Step 7005610 / 69700000 | TPS 848.941 | ETA 20:30:50
Time 02:20:43 | Step 7012016 / 69700000 | TPS 640.501 | ETA 27:11:13
Time 02:20:53 | Step 7018216 / 69700000 | TPS 619.909 | ETA 28:05:14
Time 02:21:03 | Step 7024400 / 69700000 | TPS 618.32 | ETA 28:09:24
Time 02:21:13 | Step 7030514 / 69700000 | TPS 611.387 | ETA 28:28:23
Time 02:21:23 | Step 7036517 / 69700000 | TPS 600.283 | ETA 28:59:49
Time 02:21:33 | Step 7042193 / 69700000 | TPS 567.578 | ETA 30:39:55
Time 02:21:43 | Step 7047793 / 69700000 | TPS 559.911 | ETA 31:04:56
Time 02:21:53 | Step 7054209 / 69700000 | TPS 641.591 | ETA 27:07:21
Time 02:22:03 | Step 7062730 / 69700000 | TPS 852.049 | ETA 20:25:13
Time 02:22:13 | Step 7072169 / 69700000 | TPS 943.741 | ETA 18:26:01
Time 02:22:23 | Step 7082393 / 69700000 | TPS 1022.28 | ETA 17:00:52
Time 02:22:33 | Step 7091380 / 69700000 | TPS 898.615 | ETA 19:21:12
Time 02:22:43 | Step 7100790 / 69700000 | TPS 940.997 | ETA 18:28:44
Time 02:22:53 | Step 7110940 / 69700000 | TPS 1014.95 | ETA 17:07:46
Time 02:23:03 | Step 7120686 / 69700000 | TPS 974.515 | ETA 17:50:15
Time 02:23:13 | Step 7130469 / 69700000 | TPS 978.209 | ETA 17:46:03
Time 02:23:23 | Step 7139916 / 69700000 | TPS 944.678 | ETA 18:23:43
Time 02:23:33 | Step 7149995 / 69700000 | TPS 1007.85 | ETA 17:14:22
Time 02:23:43 | Step 7159162 / 69700000 | TPS 916.558 | ETA 18:57:14
Time 02:23:53 | Step 7167285 / 69700000 | TPS 812.221 | ETA 21:23:09
Time 02:24:03 | Step 7174967 / 69700000 | TPS 768.13 | ETA 22:36:39
Time 02:24:13 | Step 7181846 / 69700000 | TPS 687.832 | ETA 25:14:51
Time 02:24:23 | Step 7188938 / 69700000 | TPS 709.197 | ETA 24:29:03
Time 02:24:33 | Step 7197096 / 69700000 | TPS 815.781 | ETA 21:16:57
Time 02:24:43 | Step 7207024 / 69700000 | TPS 992.768 | ETA 17:29:08
Time 02:24:53 | Step 7215057 / 69700000 | TPS 803.292 | ETA 21:36:26
Time 02:25:03 | Step 7222221 / 69700000 | TPS 716.352 | ETA 24:13:36
Time 02:25:13 | Step 7230420 / 69700000 | TPS 819.898 | ETA 21:09:51
Time 02:25:23 | Step 7238507 / 69700000 | TPS 808.612 | ETA 21:27:25
Time 02:25:33 | Step 7246772 / 69700000 | TPS 826.415 | ETA 20:59:31
Time 02:25:43 | Step 7254539 / 69700000 | TPS 776.667 | ETA 22:20:01
Time 02:25:53 | Step 7262384 / 69700000 | TPS 784.465 | ETA 22:06:32
Time 02:26:03 | Step 7271330 / 69700000 | TPS 894.594 | ETA 19:23:04
Time 02:26:13 | Step 7279516 / 69700000 | TPS 818.568 | ETA 21:10:55
Time 02:26:23 | Step 7286702 / 69700000 | TPS 718.551 | ETA 24:07:39
Time 02:26:33 | Step 7292534 / 69700000 | TPS 583.194 | ETA 29:43:29
Time 02:26:43 | Step 7297909 / 69700000 | TPS 537.481 | ETA 32:15:01
Time 02:26:53 | Step 7303347 / 69700000 | TPS 543.755 | ETA 31:52:31
Time 02:27:03 | Step 7308990 / 69700000 | TPS 564.221 | ETA 30:42:58
Time 02:27:13 | Step 7314083 / 69700000 | TPS 509.294 | ETA 34:01:34
Time 02:27:23 | Step 7320293 / 69700000 | TPS 620.915 | ETA 27:54:24
Time 02:27:33 | Step 7326656 / 69700000 | TPS 636.257 | ETA 27:13:51
Time 02:27:43 | Step 7332996 / 69700000 | TPS 633.936 | ETA 27:19:40
Time 02:27:53 | Step 7339540 / 69700000 | TPS 654.351 | ETA 26:28:21
Time 02:28:03 | Step 7345220 / 69700000 | TPS 567.979 | ETA 30:29:43
Time 02:28:13 | Step 7349864 / 69700000 | TPS 464.389 | ETA 37:17:42
Time 02:28:23 | Step 7355254 / 69700000 | TPS 538.985 | ETA 32:07:50
Time 02:28:33 | Step 7361357 / 69700000 | TPS 610.258 | ETA 28:22:31
Time 02:28:43 | Step 7368484 / 69700000 | TPS 712.68 | ETA 24:17:40
Time 02:28:53 | Step 7375337 / 69700000 | TPS 685.227 | ETA 25:15:54
Time 02:29:03 | Step 7381604 / 69700000 | TPS 626.651 | ETA 27:37:26
Time 02:29:13 | Step 7388330 / 69700000 | TPS 672.58 | ETA 25:44:05
Time 02:29:23 | Step 7395622 / 69700000 | TPS 729.148 | ETA 23:44:08
Time 02:29:33 | Step 7402973 / 69700000 | TPS 735.079 | ETA 23:32:28
Time 02:29:43 | Step 7409078 / 69700000 | TPS 610.467 | ETA 28:20:38
Time 02:29:53 | Step 7415735 / 69700000 | TPS 665.653 | ETA 25:59:28
Time 02:30:03 | Step 7422355 / 69700000 | TPS 661.963 | ETA 26:08:00
Time 02:30:13 | Step 7430438 / 69700000 | TPS 808.286 | ETA 21:23:59
Time 02:30:23 | Step 7439778 / 69700000 | TPS 933.991 | ETA 18:31:00
Time 02:30:33 | Step 7448730 / 69700000 | TPS 895.113 | ETA 19:19:05
Time 02:30:43 | Step 7457592 / 69700000 | TPS 886.174 | ETA 19:30:37
Time 02:30:53 | Step 7465773 / 69700000 | TPS 817.998 | ETA 21:08:01
Time 02:31:03 | Step 7474468 / 69700000 | TPS 869.439 | ETA 19:52:49
Time 02:31:13 | Step 7483752 / 69700000 | TPS 928.312 | ETA 18:37:00
Time 02:31:23 | Step 7492422 / 69700000 | TPS 866.946 | ETA 19:55:54
Time 02:31:33 | Step 7501426 / 69700000 | TPS 900.354 | ETA 19:11:22
Time 02:31:43 | Step 7512505 / 69700000 | TPS 1107.89 | ETA 15:35:31
Time 02:31:53 | Step 7523063 / 69700000 | TPS 1055.79 | ETA 16:21:31
Time 02:32:03 | Step 7532745 / 69700000 | TPS 968.159 | ETA 17:50:11
Time 02:32:13 | Step 7541619 / 69700000 | TPS 887.339 | ETA 19:27:30
Time 02:32:23 | Step 7550057 / 69700000 | TPS 843.778 | ETA 20:27:36
Time 02:32:33 | Step 7557421 / 69700000 | TPS 736.308 | ETA 23:26:37
Time 02:32:43 | Step 7564890 / 69700000 | TPS 746.895 | ETA 23:06:31
Time 02:32:53 | Step 7574151 / 69700000 | TPS 926.018 | ETA 18:38:09
Time 02:33:03 | Step 7583829 / 69700000 | TPS 967.756 | ETA 17:49:45
Time 02:33:13 | Step 7592439 / 69700000 | TPS 860.974 | ETA 20:02:16
Time 02:33:23 | Step 7599639 / 69700000 | TPS 719.934 | ETA 23:57:38
Time 02:33:33 | Step 7607267 / 69700000 | TPS 762.735 | ETA 22:36:48
Time 02:33:43 | Step 7614364 / 69700000 | TPS 709.625 | ETA 24:18:10
Time 02:33:53 | Step 7621425 / 69700000 | TPS 706.057 | ETA 24:25:22
Time 02:34:03 | Step 7629118 / 69700000 | TPS 769.264 | ETA 22:24:48
Time 02:34:13 | Step 7637266 / 69700000 | TPS 814.791 | ETA 21:09:30
Time 02:34:23 | Step 7644502 / 69700000 | TPS 723.577 | ETA 23:49:22
Time 02:34:33 | Step 7651459 / 69700000 | TPS 695.654 | ETA 24:46:34
Time 02:34:43 | Step 7659163 / 69700000 | TPS 770.388 | ETA 22:22:11
Time 02:34:53 | Step 7666808 / 69700000 | TPS 764.432 | ETA 22:32:29
Time 02:35:03 | Step 7675141 / 69700000 | TPS 833.221 | ETA 20:40:39
Time 02:35:13 | Step 7685435 / 69700000 | TPS 1029.37 | ETA 16:44:05
Time 02:35:23 | Step 7696700 / 69700000 | TPS 1126.47 | ETA 15:17:21
Time 02:35:33 | Step 7709234 / 69700000 | TPS 1253.34 | ETA 13:44:20
Time 02:35:43 | Step 7720367 / 69700000 | TPS 1113.24 | ETA 15:27:55
Time 02:35:53 | Step 7730783 / 69700000 | TPS 1041.54 | ETA 16:31:37
Time 02:36:03 | Step 7741423 / 69700000 | TPS 1063.94 | ETA 16:10:34
Time 02:36:13 | Step 7750772 / 69700000 | TPS 934.802 | ETA 18:24:29
Time 02:36:23 | Step 7759480 / 69700000 | TPS 870.797 | ETA 19:45:30
Time 02:36:33 | Step 7769484 / 69700000 | TPS 1000.31 | ETA 17:11:51
Time 02:36:43 | Step 7778281 / 69700000 | TPS 879.668 | ETA 19:33:12
Time 02:36:53 | Step 7786015 / 69700000 | TPS 773.327 | ETA 22:14:21
Time 02:37:03 | Step 7793536 / 69700000 | TPS 752.082 | ETA 22:51:53
Time 02:37:13 | Step 7801378 / 69700000 | TPS 784.138 | ETA 21:55:38
Time 02:37:23 | Step 7808384 / 69700000 | TPS 700.547 | ETA 24:32:27
Time 02:37:33 | Step 7815703 / 69700000 | TPS 731.891 | ETA 23:29:13
Time 02:37:43 | Step 7823095 / 69700000 | TPS 739.113 | ETA 23:15:17
Time 02:37:53 | Step 7829958 / 69700000 | TPS 686.256 | ETA 25:02:35
Time 02:38:03 | Step 7837508 / 69700000 | TPS 754.958 | ETA 22:45:41
Time 02:38:13 | Step 7843863 / 69700000 | TPS 635.433 | ETA 27:02:24
Time 02:38:23 | Step 7849901 / 69700000 | TPS 603.704 | ETA 28:27:31
Time 02:38:34 | Step 7855753 / 69700000 | TPS 585.165 | ETA 29:21:26
Time 02:38:44 | Step 7861802 / 69700000 | TPS 604.799 | ETA 28:24:05
Time 02:38:54 | Step 7867441 / 69700000 | TPS 563.893 | ETA 30:27:33
Time 02:39:04 | Step 7873434 / 69700000 | TPS 599.251 | ETA 28:39:33
Time 02:39:14 | Step 7879536 / 69700000 | TPS 610.19 | ETA 28:08:33
Time 02:39:24 | Step 7885859 / 69700000 | TPS 632.289 | ETA 27:09:22
Time 02:39:34 | Step 7892101 / 69700000 | TPS 624.173 | ETA 27:30:23
Time 02:39:44 | Step 7897844 / 69700000 | TPS 574.282 | ETA 29:53:36
Time 02:39:54 | Step 7904160 / 69700000 | TPS 631.562 | ETA 27:10:46
Time 02:40:04 | Step 7911237 / 69700000 | TPS 707.621 | ETA 24:15:19
Time 02:40:14 | Step 7917756 / 69700000 | TPS 651.8 | ETA 26:19:47
Time 02:40:24 | Step 7923515 / 69700000 | TPS 575.836 | ETA 29:48:01
Time 02:40:34 | Step 7929990 / 69700000 | TPS 647.476 | ETA 26:30:01
Time 02:40:44 | Step 7936550 / 69700000 | TPS 655.948 | ETA 26:09:19
Time 02:40:54 | Step 7943245 / 69700000 | TPS 669.428 | ETA 25:37:33
Time 02:41:04 | Step 7950658 / 69700000 | TPS 741.295 | ETA 23:08:19
Time 02:41:14 | Step 7958062 / 69700000 | TPS 740.377 | ETA 23:09:52
Time 02:41:24 | Step 7965713 / 69700000 | TPS 765.041 | ETA 22:24:54
Time 02:41:34 | Step 7973887 / 69700000 | TPS 817.342 | ETA 20:58:40
Time 02:41:44 | Step 7982896 / 69700000 | TPS 900.847 | ETA 19:01:50
Time 02:41:54 | Step 7989851 / 69700000 | TPS 695.422 | ETA 24:38:57
Time 02:42:04 | Step 7995664 / 69700000 | TPS 581.224 | ETA 29:29:22
Time 02:42:14 | Step 8001301 / 69700000 | TPS 563.643 | ETA 30:24:24
Time 02:42:24 | Step 8007541 / 69700000 | TPS 623.934 | ETA 27:27:56
Time 02:42:34 | Step 8013734 / 69700000 | TPS 619.3 | ETA 27:40:06
Time 02:42:44 | Step 8021101 / 69700000 | TPS 736.61 | ETA 23:15:33
Time 02:42:54 | Step 8029259 / 69700000 | TPS 815.764 | ETA 20:59:58
Time 02:43:04 | Step 8037432 / 69700000 | TPS 817.245 | ETA 20:57:31
Time 02:43:14 | Step 8044958 / 69700000 | TPS 752.528 | ETA 22:45:30
Time 02:43:24 | Step 8052739 / 69700000 | TPS 778.044 | ETA 22:00:33
Time 02:43:34 | Step 8060733 / 69700000 | TPS 799.372 | ETA 21:25:09
Time 02:43:44 | Step 8068898 / 69700000 | TPS 816.484 | ETA 20:58:03
Time 02:43:54 | Step 8076798 / 69700000 | TPS 789.946 | ETA 21:40:09
Time 02:44:04 | Step 8084282 / 69700000 | TPS 748.39 | ETA 22:52:11
Time 02:44:14 | Step 8091991 / 69700000 | TPS 770.848 | ETA 22:12:02
Time 02:44:24 | Step 8098458 / 69700000 | TPS 646.67 | ETA 26:27:39
Time 02:44:34 | Step 8104598 / 69700000 | TPS 613.917 | ETA 27:52:11
Time 02:44:44 | Step 8109902 / 69700000 | TPS 530.349 | ETA 32:15:31
Time 02:44:54 | Step 8115267 / 69700000 | TPS 536.467 | ETA 31:53:16
Time 02:45:04 | Step 8121376 / 69700000 | TPS 610.862 | ETA 28:00:06
Time 02:45:14 | Step 8127395 / 69700000 | TPS 601.884 | ETA 28:24:59
Time 02:45:24 | Step 8131876 / 69700000 | TPS 448.011 | ETA 38:10:25
Time 02:45:34 | Step 8136405 / 69700000 | TPS 452.86 | ETA 37:45:44
Time 02:45:44 | Step 8141408 / 69700000 | TPS 500.222 | ETA 34:11:02
Time 02:45:54 | Step 8147221 / 69700000 | TPS 581.289 | ETA 29:24:50
Time 02:46:04 | Step 8153395 / 69700000 | TPS 617.321 | ETA 27:41:39
Time 02:46:14 | Step 8160378 / 69700000 | TPS 698.258 | ETA 24:28:53
Time 02:46:24 | Step 8166524 / 69700000 | TPS 614.575 | ETA 27:48:43
Time 02:46:34 | Step 8172828 / 69700000 | TPS 630.367 | ETA 27:06:45
Time 02:46:44 | Step 8178905 / 69700000 | TPS 607.642 | ETA 28:07:25
Time 02:46:54 | Step 8185601 / 69700000 | TPS 669.572 | ETA 25:31:11
Time 02:47:04 | Step 8193525 / 69700000 | TPS 792.391 | ETA 21:33:41
Time 02:47:14 | Step 8202349 / 69700000 | TPS 882.332 | ETA 19:21:38
Time 02:47:24 | Step 8210721 / 69700000 | TPS 837.177 | ETA 20:24:08
Time 02:47:34 | Step 8218997 / 69700000 | TPS 827.567 | ETA 20:38:11
Time 02:47:44 | Step 8228869 / 69700000 | TPS 987.16 | ETA 17:17:50
Time 02:47:54 | Step 8239869 / 69700000 | TPS 1099.97 | ETA 15:31:14
Time 02:48:04 | Step 8250078 / 69700000 | TPS 1020.81 | ETA 16:43:17
Time 02:48:14 | Step 8258869 / 69700000 | TPS 879.067 | ETA 19:24:53
Time 02:48:24 | Step 8268865 / 69700000 | TPS 999.55 | ETA 17:04:18
Time 02:48:34 | Step 8280521 / 69700000 | TPS 1165.52 | ETA 14:38:17
Time 02:48:44 | Step 8290722 / 69700000 | TPS 1020.1 | ETA 16:43:19
Time 02:48:54 | Step 8300923 / 69700000 | TPS 1020.06 | ETA 16:43:11
Time 02:49:04 | Step 8311222 / 69700000 | TPS 1029.83 | ETA 16:33:30
Time 02:49:14 | Step 8321757 / 69700000 | TPS 1053.48 | ETA 16:11:02
Time 02:49:24 | Step 8333057 / 69700000 | TPS 1129.97 | ETA 15:05:08
Time 02:49:34 | Step 8343744 / 69700000 | TPS 1068.65 | ETA 15:56:54
Time 02:49:44 | Step 8351725 / 69700000 | TPS 797.999 | ETA 21:21:17
Time 02:49:54 | Step 8358767 / 69700000 | TPS 704.183 | ETA 24:11:49
Time 02:50:04 | Step 8365127 / 69700000 | TPS 635.903 | ETA 26:47:33
Time 02:50:14 | Step 8372054 / 69700000 | TPS 692.684 | ETA 24:35:36
Time 02:50:24 | Step 8381692 / 69700000 | TPS 963.727 | ETA 17:40:26
Time 02:50:34 | Step 8391453 / 69700000 | TPS 976.071 | ETA 17:26:51
Time 02:50:44 | Step 8400818 / 69700000 | TPS 936.446 | ETA 18:10:59
Time 02:50:54 | Step 8407760 / 69700000 | TPS 694.189 | ETA 24:31:33
Time 02:51:04 | Step 8413548 / 69700000 | TPS 578.775 | ETA 29:24:49
Time 02:51:14 | Step 8419948 / 69700000 | TPS 639.951 | ETA 26:35:57
Time 02:51:24 | Step 8426338 / 69700000 | TPS 638.91 | ETA 26:38:23
Time 02:51:34 | Step 8432530 / 69700000 | TPS 619.093 | ETA 27:29:23
Time 02:51:44 | Step 8440791 / 69700000 | TPS 826.07 | ETA 20:35:57
Time 02:51:54 | Step 8450241 / 69700000 | TPS 944.943 | ETA 18:00:18
Time 02:52:04 | Step 8457898 / 69700000 | TPS 765.627 | ETA 22:13:09
Time 02:52:14 | Step 8464703 / 69700000 | TPS 680.443 | ETA 24:59:53
Time 02:52:24 | Step 8471532 / 69700000 | TPS 682.888 | ETA 24:54:21
Time 02:52:34 | Step 8477959 / 69700000 | TPS 642.655 | ETA 26:27:44
Time 02:52:44 | Step 8485802 / 69700000 | TPS 784.233 | ETA 21:40:56
Time 02:52:54 | Step 8494150 / 69700000 | TPS 834.747 | ETA 20:22:02
Time 02:53:04 | Step 8501653 / 69700000 | TPS 750.28 | ETA 22:39:27
Time 02:53:14 | Step 8508689 / 69700000 | TPS 703.54 | ETA 24:09:36
Time 02:53:24 | Step 8516043 / 69700000 | TPS 735.336 | ETA 23:06:45
Time 02:53:34 | Step 8523873 / 69700000 | TPS 782.93 | ETA 21:42:17
Time 02:53:44 | Step 8532001 / 69700000 | TPS 812.576 | ETA 20:54:36
Time 02:53:54 | Step 8540075 / 69700000 | TPS 807.388 | ETA 21:02:30
Time 02:54:04 | Step 8546311 / 69700000 | TPS 623.586 | ETA 27:14:27
Time 02:54:14 | Step 8551488 / 69700000 | TPS 517.654 | ETA 32:48:46
Time 02:54:24 | Step 8556219 / 69700000 | TPS 473.067 | ETA 35:54:09
Time 02:54:34 | Step 8562029 / 69700000 | TPS 580.977 | ETA 29:13:53
Time 02:54:44 | Step 8568678 / 69700000 | TPS 664.846 | ETA 25:32:28
Time 02:54:54 | Step 8575438 / 69700000 | TPS 675.971 | ETA 25:07:04
Time 02:55:04 | Step 8583843 / 69700000 | TPS 840.494 | ETA 20:11:54
Time 02:55:14 | Step 8592495 / 69700000 | TPS 865.126 | ETA 19:37:14
Time 02:55:24 | Step 8600218 / 69700000 | TPS 772.205 | ETA 21:58:43
Time 02:55:34 | Step 8609273 / 69700000 | TPS 905.456 | ETA 18:44:29
Time 02:55:44 | Step 8619858 / 69700000 | TPS 1058.48 | ETA 16:01:45
Time 02:55:54 | Step 8630674 / 69700000 | TPS 1081.51 | ETA 15:41:06
Time 02:56:04 | Step 8643212 / 69700000 | TPS 1253.72 | ETA 13:31:40
Time 02:56:14 | Step 8655551 / 69700000 | TPS 1233.84 | ETA 13:44:35
Time 02:56:24 | Step 8665441 / 69700000 | TPS 988.965 | ETA 17:08:35
Time 02:56:34 | Step 8675311 / 69700000 | TPS 986.918 | ETA 17:10:33
Time 02:56:44 | Step 8684855 / 69700000 | TPS 954.385 | ETA 17:45:31
Time 02:56:54 | Step 8694931 / 69700000 | TPS 1007.52 | ETA 16:49:09
Time 02:57:04 | Step 8703911 / 69700000 | TPS 897.995 | ETA 18:52:04
Time 02:57:14 | Step 8711660 / 69700000 | TPS 774.883 | ETA 21:51:46
Time 02:57:24 | Step 8719350 / 69700000 | TPS 768.911 | ETA 22:01:47
Time 02:57:34 | Step 8726936 / 69700000 | TPS 758.582 | ETA 22:19:37
Time 02:57:44 | Step 8734745 / 69700000 | TPS 780.856 | ETA 21:41:14
Time 02:57:54 | Step 8742570 / 69700000 | TPS 782.433 | ETA 21:38:27
Time 02:58:04 | Step 8748949 / 69700000 | TPS 637.841 | ETA 26:32:38
Time 02:58:14 | Step 8755036 / 69700000 | TPS 608.695 | ETA 27:48:43
Time 02:58:24 | Step 8761567 / 69700000 | TPS 653.025 | ETA 25:55:17
Time 02:58:34 | Step 8768116 / 69700000 | TPS 654.824 | ETA 25:50:50
Time 02:58:44 | Step 8774473 / 69700000 | TPS 635.689 | ETA 26:37:21
Time 02:58:54 | Step 8780214 / 69700000 | TPS 574.068 | ETA 29:28:39
Time 02:59:04 | Step 8785136 / 69700000 | TPS 492.189 | ETA 34:22:43
Time 02:59:14 | Step 8791138 / 69700000 | TPS 600.199 | ETA 28:11:21
Time 02:59:24 | Step 8798198 / 69700000 | TPS 705.972 | ETA 23:57:46
Time 02:59:34 | Step 8805080 / 69700000 | TPS 688.176 | ETA 24:34:47
Time 02:59:44 | Step 8812735 / 69700000 | TPS 765.464 | ETA 22:05:42
Time 02:59:54 | Step 8823679 / 69700000 | TPS 1094.33 | ETA 15:27:08
Time 03:00:04 | Step 8834802 / 69700000 | TPS 1112.24 | ETA 15:12:03
Time 03:00:14 | Step 8844805 / 69700000 | TPS 1000.25 | ETA 16:54:00
Time 03:00:24 | Step 8857422 / 69700000 | TPS 1261.67 | ETA 13:23:43
Time 03:00:34 | Step 8867186 / 69700000 | TPS 976.39 | ETA 17:18:23
Time 03:00:44 | Step 8876148 / 69700000 | TPS 896.13 | ETA 18:51:13
Time 03:00:54 | Step 8886032 / 69700000 | TPS 988.356 | ETA 17:05:30
Time 03:01:04 | Step 8896130 / 69700000 | TPS 1009.75 | ETA 16:43:36
Time 03:01:14 | Step 8904967 / 69700000 | TPS 883.616 | ETA 19:06:42
Time 03:01:24 | Step 8914465 / 69700000 | TPS 949.757 | ETA 17:46:41
Time 03:01:34 | Step 8924330 / 69700000 | TPS 986.425 | ETA 17:06:52
Time 03:01:44 | Step 8935317 / 69700000 | TPS 1098.67 | ETA 15:21:47
Time 03:01:54 | Step 8946334 / 69700000 | TPS 1101.6 | ETA 15:19:10
Time 03:02:04 | Step 8955371 / 69700000 | TPS 903.675 | ETA 18:40:19
Time 03:02:14 | Step 8964594 / 69700000 | TPS 922.266 | ETA 18:17:34
Time 03:02:24 | Step 8974443 / 69700000 | TPS 984.862 | ETA 17:07:38
Time 03:02:34 | Step 8984120 / 69700000 | TPS 967.675 | ETA 17:25:44
Time 03:02:44 | Step 8993031 / 69700000 | TPS 891.028 | ETA 18:55:31
Time 03:02:54 | Step 9001159 / 69700000 | TPS 812.737 | ETA 20:44:44
Time 03:03:04 | Step 9009120 / 69700000 | TPS 796.023 | ETA 21:10:42
Time 03:03:14 | Step 9017458 / 69700000 | TPS 833.777 | ETA 20:13:00
Time 03:03:24 | Step 9025095 / 69700000 | TPS 763.665 | ETA 22:04:12
Time 03:03:34 | Step 9034155 / 69700000 | TPS 905.955 | ETA 18:36:03
Time 03:03:44 | Step 9044663 / 69700000 | TPS 1050.74 | ETA 16:02:06
Time 03:03:54 | Step 9054284 / 69700000 | TPS 962.099 | ETA 17:30:34
Time 03:04:04 | Step 9062504 / 69700000 | TPS 821.977 | ETA 20:29:30
Time 03:04:14 | Step 9071073 / 69700000 | TPS 856.841 | ETA 19:39:18
Time 03:04:24 | Step 9078867 / 69700000 | TPS 779.382 | ETA 21:36:20
Time 03:04:34 | Step 9088528 / 69700000 | TPS 966.098 | ETA 17:25:38
Time 03:04:44 | Step 9100120 / 69700000 | TPS 1159.2 | ETA 14:31:17
Time 03:04:54 | Step 9111479 / 69700000 | TPS 1135.89 | ETA 14:48:59
Time 03:05:04 | Step 9121517 / 69700000 | TPS 1003.75 | ETA 16:45:52
Time 03:05:14 | Step 9132127 / 69700000 | TPS 1060.94 | ETA 15:51:28
Time 03:05:24 | Step 9141519 / 69700000 | TPS 939.175 | ETA 17:54:40
Time 03:05:34 | Step 9151880 / 69700000 | TPS 1036.05 | ETA 16:14:01
Time 03:05:44 | Step 9163008 / 69700000 | TPS 1112.71 | ETA 15:06:44
Time 03:05:54 | Step 9175880 / 69700000 | TPS 1287.11 | ETA 13:03:43
Time 03:06:04 | Step 9188644 / 69700000 | TPS 1276.33 | ETA 13:10:10
Time 03:06:14 | Step 9198385 / 69700000 | TPS 973.974 | ETA 17:15:18
Time 03:06:24 | Step 9207941 / 69700000 | TPS 955.544 | ETA 17:35:06
Time 03:06:34 | Step 9217097 / 69700000 | TPS 915.511 | ETA 18:21:04
Time 03:06:44 | Step 9225202 / 69700000 | TPS 810.461 | ETA 20:43:37
Time 03:06:54 | Step 9235769 / 69700000 | TPS 1056.62 | ETA 15:53:44
Time 03:07:04 | Step 9246005 / 69700000 | TPS 1023.51 | ETA 16:24:25
Time 03:07:14 | Step 9255790 / 69700000 | TPS 978.446 | ETA 17:09:35
Time 03:07:24 | Step 9265297 / 69700000 | TPS 950.629 | ETA 17:39:33
Time 03:07:34 | Step 9274078 / 69700000 | TPS 878.075 | ETA 19:06:56
Time 03:07:44 | Step 9283870 / 69700000 | TPS 979.174 | ETA 17:08:21
Time 03:07:54 | Step 9294034 / 69700000 | TPS 1016.29 | ETA 16:30:37
Time 03:08:04 | Step 9305306 / 69700000 | TPS 1127.14 | ETA 14:53:02
Time 03:08:14 | Step 9318096 / 69700000 | TPS 1278.99 | ETA 13:06:50
Time 03:08:24 | Step 9330003 / 69700000 | TPS 1190.61 | ETA 14:05:05
Time 03:08:34 | Step 9340133 / 69700000 | TPS 1012.95 | ETA 16:33:08
Time 03:08:44 | Step 9349737 / 69700000 | TPS 960.386 | ETA 17:27:19
Time 03:08:54 | Step 9359187 / 69700000 | TPS 944.94 | ETA 17:44:16
Time 03:09:04 | Step 9367956 / 69700000 | TPS 876.867 | ETA 19:06:44
Time 03:09:14 | Step 9377066 / 69700000 | TPS 910.915 | ETA 18:23:42
Time 03:09:24 | Step 9386662 / 69700000 | TPS 959.508 | ETA 17:27:38
Time 03:09:34 | Step 9394131 / 69700000 | TPS 746.895 | ETA 22:25:42
Time 03:09:44 | Step 9401374 / 69700000 | TPS 724.202 | ETA 23:07:42
Time 03:09:54 | Step 9408816 / 69700000 | TPS 744.126 | ETA 22:30:22
Time 03:10:04 | Step 9416602 / 69700000 | TPS 778.596 | ETA 21:30:25
Time 03:10:14 | Step 9424127 / 69700000 | TPS 752.5 | ETA 22:15:00
Time 03:10:24 | Step 9432336 / 69700000 | TPS 820.836 | ETA 20:23:42
Time 03:10:34 | Step 9440034 / 69700000 | TPS 769.633 | ETA 21:44:57
Time 03:10:44 | Step 9447580 / 69700000 | TPS 754.583 | ETA 22:10:48
[...]
Time 22:54:58 | Step 67367984 / 69700000 | TPS 517.06 | ETA 01:15:10
Time 22:55:08 | Step 67373506 / 69700000 | TPS 552.134 | ETA 01:10:13
Time 22:55:18 | Step 67379416 / 69700000 | TPS 590.961 | ETA 01:05:26
Time 22:55:28 | Step 67387029 / 69700000 | TPS 761.268 | ETA 00:50:38
Time 22:55:38 | Step 67395338 / 69700000 | TPS 830.673 | ETA 00:46:14
Time 22:55:48 | Step 67402520 / 69700000 | TPS 718.143 | ETA 00:53:19
Time 22:55:58 | Step 67410433 / 69700000 | TPS 791.259 | ETA 00:48:13
Time 22:56:08 | Step 67416972 / 69700000 | TPS 653.783 | ETA 00:58:12
Time 22:56:18 | Step 67423439 / 69700000 | TPS 646.648 | ETA 00:58:40
Time 22:56:28 | Step 67431689 / 69700000 | TPS 824.997 | ETA 00:45:49
Time 22:56:38 | Step 67442160 / 69700000 | TPS 1047.04 | ETA 00:35:56
Time 22:56:48 | Step 67453121 / 69700000 | TPS 1096.06 | ETA 00:34:09
Time 22:56:58 | Step 67465208 / 69700000 | TPS 1208.69 | ETA 00:30:48
Time 22:57:08 | Step 67477462 / 69700000 | TPS 1225.34 | ETA 00:30:13
Time 22:57:18 | Step 67489095 / 69700000 | TPS 1163.28 | ETA 00:31:40
Time 22:57:28 | Step 67498116 / 69700000 | TPS 902.082 | ETA 00:40:40
Time 22:57:38 | Step 67506092 / 69700000 | TPS 797.502 | ETA 00:45:50
Time 22:57:48 | Step 67514205 / 69700000 | TPS 811.215 | ETA 00:44:54
Time 22:57:58 | Step 67522879 / 69700000 | TPS 867.339 | ETA 00:41:50
Time 22:58:08 | Step 67531658 / 69700000 | TPS 877.847 | ETA 00:41:10
Time 22:58:18 | Step 67540740 / 69700000 | TPS 908.133 | ETA 00:39:37
Time 22:58:28 | Step 67550742 / 69700000 | TPS 1000.17 | ETA 00:35:48
Time 22:58:38 | Step 67559416 / 69700000 | TPS 867.347 | ETA 00:41:07
Time 22:58:48 | Step 67568406 / 69700000 | TPS 898.994 | ETA 00:39:31
Time 22:58:58 | Step 67578160 / 69700000 | TPS 975.374 | ETA 00:36:15
Time 22:59:08 | Step 67587949 / 69700000 | TPS 978.851 | ETA 00:35:57
Time 22:59:18 | Step 67597598 / 69700000 | TPS 964.897 | ETA 00:36:18
Time 22:59:28 | Step 67607449 / 69700000 | TPS 985.035 | ETA 00:35:24
Time 22:59:38 | Step 67617250 / 69700000 | TPS 980.001 | ETA 00:35:25
Time 22:59:48 | Step 67627308 / 69700000 | TPS 1005.74 | ETA 00:34:20
Time 22:59:58 | Step 67637526 / 69700000 | TPS 1021.74 | ETA 00:33:38
Time 23:00:08 | Step 67648558 / 69700000 | TPS 1103.16 | ETA 00:30:59
Time 23:00:18 | Step 67660551 / 69700000 | TPS 1199.3 | ETA 00:28:20
Time 23:00:28 | Step 67671761 / 69700000 | TPS 1120.94 | ETA 00:30:09
Time 23:00:38 | Step 67684387 / 69700000 | TPS 1262.57 | ETA 00:26:36
Time 23:00:48 | Step 67696300 / 69700000 | TPS 1191.12 | ETA 00:28:02
Time 23:00:58 | Step 67708435 / 69700000 | TPS 1213.43 | ETA 00:27:21
Time 23:01:08 | Step 67720449 / 69700000 | TPS 1201.35 | ETA 00:27:27
Time 23:01:18 | Step 67732639 / 69700000 | TPS 1218.91 | ETA 00:26:54
Time 23:01:28 | Step 67744842 / 69700000 | TPS 1220.26 | ETA 00:26:42
Time 23:01:38 | Step 67756062 / 69700000 | TPS 1121.97 | ETA 00:28:52
Time 23:01:48 | Step 67767818 / 69700000 | TPS 1175.54 | ETA 00:27:23
Time 23:01:58 | Step 67777139 / 69700000 | TPS 932.095 | ETA 00:34:22
Time 23:02:08 | Step 67785603 / 69700000 | TPS 846.379 | ETA 00:37:41
Time 23:02:18 | Step 67794335 / 69700000 | TPS 873.142 | ETA 00:36:22
Time 23:02:28 | Step 67802592 / 69700000 | TPS 825.623 | ETA 00:38:18
Time 23:02:38 | Step 67809954 / 69700000 | TPS 736.113 | ETA 00:42:47
Time 23:02:48 | Step 67818248 / 69700000 | TPS 829.377 | ETA 00:37:48
Time 23:02:58 | Step 67828141 / 69700000 | TPS 989.236 | ETA 00:31:32
Time 23:03:08 | Step 67836659 / 69700000 | TPS 851.733 | ETA 00:36:27
Time 23:03:18 | Step 67844419 / 69700000 | TPS 775.978 | ETA 00:39:51
Time 23:03:28 | Step 67854211 / 69700000 | TPS 979.147 | ETA 00:31:25
Time 23:03:38 | Step 67862218 / 69700000 | TPS 800.597 | ETA 00:38:15
Time 23:03:48 | Step 67868665 / 69700000 | TPS 644.622 | ETA 00:47:20
Time 23:03:58 | Step 67874847 / 69700000 | TPS 618.154 | ETA 00:49:12
Time 23:04:08 | Step 67881790 / 69700000 | TPS 694.288 | ETA 00:43:38
Time 23:04:18 | Step 67889143 / 69700000 | TPS 735.285 | ETA 00:41:02
Time 23:04:28 | Step 67896956 / 69700000 | TPS 781.241 | ETA 00:38:27
Time 23:04:38 | Step 67904911 / 69700000 | TPS 795.474 | ETA 00:37:36
Time 23:04:48 | Step 67913629 / 69700000 | TPS 871.741 | ETA 00:34:09
Time 23:04:58 | Step 67921134 / 69700000 | TPS 750.462 | ETA 00:39:30
Time 23:05:08 | Step 67927714 / 69700000 | TPS 657.941 | ETA 00:44:53
Time 23:05:18 | Step 67933644 / 69700000 | TPS 592.935 | ETA 00:49:39
Time 23:05:28 | Step 67939504 / 69700000 | TPS 585.951 | ETA 00:50:04
Time 23:05:38 | Step 67946424 / 69700000 | TPS 691.951 | ETA 00:42:14
Time 23:05:48 | Step 67955279 / 69700000 | TPS 885.415 | ETA 00:32:50
Time 23:05:58 | Step 67964524 / 69700000 | TPS 924.413 | ETA 00:31:17
Time 23:06:08 | Step 67973218 / 69700000 | TPS 869.321 | ETA 00:33:06
Time 23:06:18 | Step 67983995 / 69700000 | TPS 1077.61 | ETA 00:26:32
Time 23:06:28 | Step 67994238 / 69700000 | TPS 1024.21 | ETA 00:27:45
Time 23:06:38 | Step 68003550 / 69700000 | TPS 931.113 | ETA 00:30:21
Time 23:06:48 | Step 68012752 / 69700000 | TPS 920.168 | ETA 00:30:33
Time 23:06:58 | Step 68021191 / 69700000 | TPS 843.896 | ETA 00:33:09
Time 23:07:08 | Step 68029482 / 69700000 | TPS 829.093 | ETA 00:33:34
Time 23:07:18 | Step 68036864 / 69700000 | TPS 738.154 | ETA 00:37:33
Time 23:07:28 | Step 68044187 / 69700000 | TPS 732.263 | ETA 00:37:41
Time 23:07:38 | Step 68051710 / 69700000 | TPS 752.226 | ETA 00:36:31
Time 23:07:48 | Step 68059304 / 69700000 | TPS 759.322 | ETA 00:36:00
Time 23:07:58 | Step 68066056 / 69700000 | TPS 675.136 | ETA 00:40:20
Time 23:08:08 | Step 68073903 / 69700000 | TPS 784.695 | ETA 00:34:32
Time 23:08:18 | Step 68082325 / 69700000 | TPS 842.198 | ETA 00:32:00
Time 23:08:28 | Step 68090947 / 69700000 | TPS 862.117 | ETA 00:31:06
Time 23:08:38 | Step 68100476 / 69700000 | TPS 952.854 | ETA 00:27:58
Time 23:08:48 | Step 68109365 / 69700000 | TPS 888.812 | ETA 00:29:49
Time 23:08:58 | Step 68118471 / 69700000 | TPS 910.582 | ETA 00:28:56
Time 23:09:08 | Step 68129081 / 69700000 | TPS 1060.96 | ETA 00:24:40
Time 23:09:18 | Step 68140704 / 69700000 | TPS 1162.28 | ETA 00:22:21
Time 23:09:28 | Step 68150570 / 69700000 | TPS 986.568 | ETA 00:26:10
Time 23:09:38 | Step 68160204 / 69700000 | TPS 963.351 | ETA 00:26:38
Time 23:09:48 | Step 68170710 / 69700000 | TPS 1050.59 | ETA 00:24:15
Time 23:09:58 | Step 68181442 / 69700000 | TPS 1073.18 | ETA 00:23:35
Time 23:10:08 | Step 68191528 / 69700000 | TPS 1008.57 | ETA 00:24:55
Time 23:10:18 | Step 68200987 / 69700000 | TPS 945.872 | ETA 00:26:24
Time 23:10:28 | Step 68209830 / 69700000 | TPS 884.214 | ETA 00:28:05
Time 23:10:38 | Step 68218546 / 69700000 | TPS 871.528 | ETA 00:28:19
Time 23:10:48 | Step 68228572 / 69700000 | TPS 1002.54 | ETA 00:24:27
Time 23:10:58 | Step 68239124 / 69700000 | TPS 1055.14 | ETA 00:23:04
Time 23:11:08 | Step 68249795 / 69700000 | TPS 1067.08 | ETA 00:22:39
Time 23:11:18 | Step 68260065 / 69700000 | TPS 1026.96 | ETA 00:23:22
Time 23:11:28 | Step 68269583 / 69700000 | TPS 951.777 | ETA 00:25:02
Time 23:11:38 | Step 68278462 / 69700000 | TPS 887.856 | ETA 00:26:41
Time 23:11:48 | Step 68287195 / 69700000 | TPS 873.25 | ETA 00:26:57
Time 23:11:58 | Step 68297052 / 69700000 | TPS 985.635 | ETA 00:23:43
Time 23:12:08 | Step 68307367 / 69700000 | TPS 1031.45 | ETA 00:22:30
Time 23:12:18 | Step 68316747 / 69700000 | TPS 937.985 | ETA 00:24:34
Time 23:12:28 | Step 68325922 / 69700000 | TPS 917.465 | ETA 00:24:57
Time 23:12:38 | Step 68334982 / 69700000 | TPS 905.918 | ETA 00:25:06
Time 23:12:48 | Step 68344095 / 69700000 | TPS 911.252 | ETA 00:24:47
Time 23:12:58 | Step 68353568 / 69700000 | TPS 947.256 | ETA 00:23:41
Time 23:13:08 | Step 68362536 / 69700000 | TPS 896.76 | ETA 00:24:51
Time 23:13:18 | Step 68371686 / 69700000 | TPS 914.989 | ETA 00:24:11
Time 23:13:28 | Step 68382228 / 69700000 | TPS 1054.2 | ETA 00:20:50
Time 23:13:38 | Step 68391427 / 69700000 | TPS 919.79 | ETA 00:23:42
Time 23:13:48 | Step 68399229 / 69700000 | TPS 780.164 | ETA 00:27:47
Time 23:13:58 | Step 68407439 / 69700000 | TPS 820.953 | ETA 00:26:14
Time 23:14:08 | Step 68415903 / 69700000 | TPS 846.38 | ETA 00:25:17
Time 23:14:18 | Step 68424033 / 69700000 | TPS 812.939 | ETA 00:26:09
Time 23:14:28 | Step 68433077 / 69700000 | TPS 904.391 | ETA 00:23:20
Time 23:14:38 | Step 68444210 / 69700000 | TPS 1113.25 | ETA 00:18:48
Time 23:14:48 | Step 68455060 / 69700000 | TPS 1084.98 | ETA 00:19:07
Time 23:14:58 | Step 68465197 / 69700000 | TPS 1013.62 | ETA 00:20:18
Time 23:15:08 | Step 68474038 / 69700000 | TPS 883.911 | ETA 00:23:06
Time 23:15:18 | Step 68483727 / 69700000 | TPS 968.834 | ETA 00:20:55
Time 23:15:28 | Step 68492479 / 69700000 | TPS 875.189 | ETA 00:22:59
Time 23:15:38 | Step 68502234 / 69700000 | TPS 975.491 | ETA 00:20:27
Time 23:15:48 | Step 68513292 / 69700000 | TPS 1105.73 | ETA 00:17:53
Time 23:15:58 | Step 68523522 / 69700000 | TPS 1022.98 | ETA 00:19:10
Time 23:16:08 | Step 68532504 / 69700000 | TPS 898.11 | ETA 00:21:39
Time 23:16:18 | Step 68540448 / 69700000 | TPS 794.317 | ETA 00:24:19
Time 23:16:28 | Step 68551736 / 69700000 | TPS 1128.78 | ETA 00:16:57
Time 23:16:38 | Step 68562991 / 69700000 | TPS 1125.46 | ETA 00:16:50
Time 23:16:48 | Step 68572198 / 69700000 | TPS 920.624 | ETA 00:20:25
Time 23:16:58 | Step 68580912 / 69700000 | TPS 871.385 | ETA 00:21:24
Time 23:17:08 | Step 68590128 / 69700000 | TPS 921.541 | ETA 00:20:04
Time 23:17:18 | Step 68600990 / 69700000 | TPS 1086.15 | ETA 00:16:51
Time 23:17:28 | Step 68610945 / 69700000 | TPS 995.449 | ETA 00:18:14
Time 23:17:38 | Step 68619027 / 69700000 | TPS 808.167 | ETA 00:22:17
Time 23:17:48 | Step 68626094 / 69700000 | TPS 706.612 | ETA 00:25:19
Time 23:17:58 | Step 68632354 / 69700000 | TPS 625.948 | ETA 00:28:25
Time 23:18:08 | Step 68638574 / 69700000 | TPS 621.937 | ETA 00:28:26
Time 23:18:18 | Step 68644546 / 69700000 | TPS 597.098 | ETA 00:29:27
Time 23:18:28 | Step 68650071 / 69700000 | TPS 552.475 | ETA 00:31:40
Time 23:18:38 | Step 68655802 / 69700000 | TPS 573.095 | ETA 00:30:22
Time 23:18:48 | Step 68661106 / 69700000 | TPS 530.327 | ETA 00:32:38
Time 23:18:58 | Step 68667349 / 69700000 | TPS 624.284 | ETA 00:27:34
Time 23:19:08 | Step 68674427 / 69700000 | TPS 707.783 | ETA 00:24:08
Time 23:19:18 | Step 68680900 / 69700000 | TPS 647.245 | ETA 00:26:14
Time 23:19:28 | Step 68687463 / 69700000 | TPS 656.272 | ETA 00:25:42
Time 23:19:38 | Step 68694202 / 69700000 | TPS 673.864 | ETA 00:24:52
Time 23:19:48 | Step 68701397 / 69700000 | TPS 719.486 | ETA 00:23:07
Time 23:19:58 | Step 68709426 / 69700000 | TPS 802.824 | ETA 00:20:33
Time 23:20:09 | Step 68718891 / 69700000 | TPS 946.443 | ETA 00:17:16
Time 23:20:19 | Step 68727820 / 69700000 | TPS 892.837 | ETA 00:18:08
Time 23:20:29 | Step 68734219 / 69700000 | TPS 639.798 | ETA 00:25:09
Time 23:20:39 | Step 68739270 / 69700000 | TPS 505.064 | ETA 00:31:42
Time 23:20:49 | Step 68744215 / 69700000 | TPS 494.485 | ETA 00:32:12
Time 23:20:59 | Step 68749960 / 69700000 | TPS 574.43 | ETA 00:27:33
Time 23:21:09 | Step 68756951 / 69700000 | TPS 699.022 | ETA 00:22:29
Time 23:21:19 | Step 68764500 / 69700000 | TPS 754.799 | ETA 00:20:39
Time 23:21:29 | Step 68771226 / 69700000 | TPS 672.6 | ETA 00:23:00
Time 23:21:39 | Step 68776842 / 69700000 | TPS 561.575 | ETA 00:27:23
Time 23:21:49 | Step 68783278 / 69700000 | TPS 643.59 | ETA 00:23:44
Time 23:21:59 | Step 68791050 / 69700000 | TPS 777.121 | ETA 00:19:29
Time 23:22:09 | Step 68798655 / 69700000 | TPS 760.473 | ETA 00:19:45
Time 23:22:19 | Step 68806142 / 69700000 | TPS 748.672 | ETA 00:19:53
Time 23:22:29 | Step 68814367 / 69700000 | TPS 822.488 | ETA 00:17:56
Time 23:22:39 | Step 68822337 / 69700000 | TPS 796.82 | ETA 00:18:21
Time 23:22:49 | Step 68831154 / 69700000 | TPS 881.627 | ETA 00:16:25
Time 23:22:59 | Step 68840466 / 69700000 | TPS 931.12 | ETA 00:15:23
Time 23:23:09 | Step 68848869 / 69700000 | TPS 840.21 | ETA 00:16:52
Time 23:23:19 | Step 68855941 / 69700000 | TPS 707.119 | ETA 00:19:53
Time 23:23:29 | Step 68863732 / 69700000 | TPS 778.987 | ETA 00:17:53
Time 23:23:39 | Step 68872787 / 69700000 | TPS 905.493 | ETA 00:15:13
Time 23:23:49 | Step 68882112 / 69700000 | TPS 932.493 | ETA 00:14:37
Time 23:23:59 | Step 68890430 / 69700000 | TPS 831.786 | ETA 00:16:13
Time 23:24:09 | Step 68897310 / 69700000 | TPS 687.951 | ETA 00:19:26
Time 23:24:19 | Step 68903417 / 69700000 | TPS 610.614 | ETA 00:21:44
Time 23:24:29 | Step 68909469 / 69700000 | TPS 605.175 | ETA 00:21:46
Time 23:24:39 | Step 68916510 / 69700000 | TPS 704.077 | ETA 00:18:32
Time 23:24:49 | Step 68924036 / 69700000 | TPS 752.536 | ETA 00:17:11
Time 23:24:59 | Step 68931173 / 69700000 | TPS 713.649 | ETA 00:17:57
Time 23:25:09 | Step 68939423 / 69700000 | TPS 824.991 | ETA 00:15:21
Time 23:25:19 | Step 68946635 / 69700000 | TPS 721.155 | ETA 00:17:24
Time 23:25:29 | Step 68954209 / 69700000 | TPS 757.387 | ETA 00:16:24
Time 23:25:39 | Step 68962199 / 69700000 | TPS 798.945 | ETA 00:15:23
Time 23:25:49 | Step 68968916 / 69700000 | TPS 671.659 | ETA 00:18:08
Time 23:25:59 | Step 68976140 / 69700000 | TPS 722.379 | ETA 00:16:42
Time 23:26:09 | Step 68982816 / 69700000 | TPS 667.597 | ETA 00:17:54
Time 23:26:19 | Step 68989873 / 69700000 | TPS 705.659 | ETA 00:16:46
Time 23:26:29 | Step 68996626 / 69700000 | TPS 675.255 | ETA 00:17:21
Time 23:26:39 | Step 69003444 / 69700000 | TPS 681.73 | ETA 00:17:01
Time 23:26:49 | Step 69011278 / 69700000 | TPS 783.341 | ETA 00:14:39
Time 23:26:59 | Step 69018956 / 69700000 | TPS 767.747 | ETA 00:14:47
Time 23:27:09 | Step 69026845 / 69700000 | TPS 788.805 | ETA 00:14:13
Time 23:27:19 | Step 69034490 / 69700000 | TPS 764.478 | ETA 00:14:30
Time 23:27:29 | Step 69040854 / 69700000 | TPS 636.385 | ETA 00:17:15
Time 23:27:39 | Step 69046339 / 69700000 | TPS 548.341 | ETA 00:19:52
Time 23:27:49 | Step 69052232 / 69700000 | TPS 589.244 | ETA 00:18:19
Time 23:27:59 | Step 69059073 / 69700000 | TPS 684.047 | ETA 00:15:36
Time 23:28:09 | Step 69067189 / 69700000 | TPS 811.585 | ETA 00:12:59
Time 23:28:19 | Step 69074855 / 69700000 | TPS 766.589 | ETA 00:13:35
Time 23:28:29 | Step 69081580 / 69700000 | TPS 672.454 | ETA 00:15:19
Time 23:28:39 | Step 69088911 / 69700000 | TPS 733.017 | ETA 00:13:53
Time 23:28:49 | Step 69095236 / 69700000 | TPS 632.461 | ETA 00:15:56
Time 23:28:59 | Step 69102151 / 69700000 | TPS 691.412 | ETA 00:14:24
Time 23:29:09 | Step 69109613 / 69700000 | TPS 746.185 | ETA 00:13:11
Time 23:29:19 | Step 69117235 / 69700000 | TPS 762.111 | ETA 00:12:44
Time 23:29:29 | Step 69123784 / 69700000 | TPS 654.859 | ETA 00:14:39
Time 23:29:39 | Step 69130520 / 69700000 | TPS 673.519 | ETA 00:14:05
Time 23:29:49 | Step 69138543 / 69700000 | TPS 802.289 | ETA 00:11:39
Time 23:29:59 | Step 69146479 / 69700000 | TPS 793.584 | ETA 00:11:37
Time 23:30:09 | Step 69154079 / 69700000 | TPS 759.945 | ETA 00:11:58
Time 23:30:19 | Step 69163148 / 69700000 | TPS 906.861 | ETA 00:09:51
Time 23:30:29 | Step 69173018 / 69700000 | TPS 986.979 | ETA 00:08:53
Time 23:30:39 | Step 69183021 / 69700000 | TPS 1000.21 | ETA 00:08:36
Time 23:30:49 | Step 69192180 / 69700000 | TPS 915.899 | ETA 00:09:14
Time 23:30:59 | Step 69200833 / 69700000 | TPS 865.24 | ETA 00:09:36
Time 23:31:09 | Step 69210246 / 69700000 | TPS 941.237 | ETA 00:08:40
Time 23:31:19 | Step 69219295 / 69700000 | TPS 904.846 | ETA 00:08:51
Time 23:31:29 | Step 69228128 / 69700000 | TPS 883.216 | ETA 00:08:54
Time 23:31:39 | Step 69238521 / 69700000 | TPS 1039.28 | ETA 00:07:24
Time 23:31:49 | Step 69249232 / 69700000 | TPS 1071.01 | ETA 00:07:00
Time 23:31:59 | Step 69257428 / 69700000 | TPS 819.537 | ETA 00:09:00
Time 23:32:09 | Step 69266447 / 69700000 | TPS 901.851 | ETA 00:08:00
Time 23:32:19 | Step 69274866 / 69700000 | TPS 841.83 | ETA 00:08:25
Time 23:32:29 | Step 69283990 / 69700000 | TPS 912.395 | ETA 00:07:35
Time 23:32:39 | Step 69295262 / 69700000 | TPS 1127.2 | ETA 00:05:59
Time 23:32:49 | Step 69306871 / 69700000 | TPS 1160.9 | ETA 00:05:38
Time 23:32:59 | Step 69317823 / 69700000 | TPS 1095.1 | ETA 00:05:48
Time 23:33:09 | Step 69327990 / 69700000 | TPS 1016.62 | ETA 00:06:05
Time 23:33:19 | Step 69336897 / 69700000 | TPS 890.64 | ETA 00:06:47
Time 23:33:29 | Step 69346026 / 69700000 | TPS 912.871 | ETA 00:06:27
Time 23:33:39 | Step 69355919 / 69700000 | TPS 989.196 | ETA 00:05:47
Time 23:33:49 | Step 69363982 / 69700000 | TPS 806.3 | ETA 00:06:56
Time 23:33:59 | Step 69371821 / 69700000 | TPS 783.821 | ETA 00:06:58
Time 23:34:09 | Step 69380452 / 69700000 | TPS 863.019 | ETA 00:06:10
Time 23:34:19 | Step 69388416 / 69700000 | TPS 796.314 | ETA 00:06:31
Time 23:34:29 | Step 69396569 / 69700000 | TPS 815.241 | ETA 00:06:12
Time 23:34:39 | Step 69404992 / 69700000 | TPS 842.237 | ETA 00:05:50
Time 23:34:49 | Step 69414734 / 69700000 | TPS 974.118 | ETA 00:04:52
Time 23:34:59 | Step 69422812 / 69700000 | TPS 807.791 | ETA 00:05:43
Time 23:35:09 | Step 69430124 / 69700000 | TPS 731.175 | ETA 00:06:09
Time 23:35:19 | Step 69437932 / 69700000 | TPS 780.765 | ETA 00:05:35
Time 23:35:29 | Step 69446115 / 69700000 | TPS 818.298 | ETA 00:05:10
Time 23:35:39 | Step 69453763 / 69700000 | TPS 764.787 | ETA 00:05:21
Time 23:35:49 | Step 69461884 / 69700000 | TPS 812.056 | ETA 00:04:53
Time 23:35:59 | Step 69469165 / 69700000 | TPS 728.059 | ETA 00:05:17
Time 23:36:09 | Step 69475539 / 69700000 | TPS 637.382 | ETA 00:05:52
Time 23:36:19 | Step 69481405 / 69700000 | TPS 586.524 | ETA 00:06:12
Time 23:36:29 | Step 69487166 / 69700000 | TPS 576.055 | ETA 00:06:09
Time 23:36:39 | Step 69492774 / 69700000 | TPS 560.78 | ETA 00:06:09
Time 23:36:49 | Step 69497699 / 69700000 | TPS 492.436 | ETA 00:06:50
Time 23:36:59 | Step 69502497 / 69700000 | TPS 479.71 | ETA 00:06:51
Time 23:37:09 | Step 69507343 / 69700000 | TPS 484.527 | ETA 00:06:37
Time 23:37:19 | Step 69512662 / 69700000 | TPS 531.833 | ETA 00:05:52
Time 23:37:29 | Step 69517657 / 69700000 | TPS 499.492 | ETA 00:06:05
Time 23:37:39 | Step 69522954 / 69700000 | TPS 529.648 | ETA 00:05:34
Time 23:37:49 | Step 69528256 / 69700000 | TPS 530.195 | ETA 00:05:23
Time 23:37:59 | Step 69533273 / 69700000 | TPS 501.621 | ETA 00:05:32
Time 23:38:09 | Step 69539320 / 69700000 | TPS 604.667 | ETA 00:04:25
Time 23:38:19 | Step 69545876 / 69700000 | TPS 655.53 | ETA 00:03:55
Time 23:38:29 | Step 69552414 / 69700000 | TPS 653.747 | ETA 00:03:45
Time 23:38:39 | Step 69559573 / 69700000 | TPS 715.797 | ETA 00:03:16
Time 23:38:49 | Step 69566167 / 69700000 | TPS 659.398 | ETA 00:03:22
Time 23:38:59 | Step 69572244 / 69700000 | TPS 607.688 | ETA 00:03:30
Time 23:39:09 | Step 69579557 / 69700000 | TPS 731.268 | ETA 00:02:44
Time 23:39:19 | Step 69587833 / 69700000 | TPS 827.503 | ETA 00:02:15
Time 23:39:29 | Step 69596959 / 69700000 | TPS 912.59 | ETA 00:01:52
Time 23:39:39 | Step 69606461 / 69700000 | TPS 950.186 | ETA 00:01:38
Time 23:39:49 | Step 69615538 / 69700000 | TPS 907.64 | ETA 00:01:33
Time 23:39:59 | Step 69624953 / 69700000 | TPS 941.443 | ETA 00:01:19
Time 23:40:09 | Step 69633527 / 69700000 | TPS 857.388 | ETA 00:01:17
Time 23:40:19 | Step 69642653 / 69700000 | TPS 912.598 | ETA 00:01:02
Time 23:40:29 | Step 69649849 / 69700000 | TPS 719.546 | ETA 00:01:09
Time 23:40:39 | Step 69656288 / 69700000 | TPS 643.818 | ETA 00:01:07
Time 23:40:49 | Step 69663001 / 69700000 | TPS 671.187 | ETA 00:00:55
Time 23:40:59 | Step 69671803 / 69700000 | TPS 880.141 | ETA 00:00:32
Time 23:41:09 | Step 69683016 / 69700000 | TPS 1121.2 | ETA 00:00:15
Time 23:41:19 | Step 69695110 / 69700000 | TPS 1209.38 | ETA 00:00:04
Time 23:41:22 | Step 69700000 / 69700000 | TPS 1295.66 | ETA 00:00:00
Average TPS: 817.195
---------
-- Neighborlist stats:
1545260 normal updates / 696900 forced updates / 0 dangerous updates
n_neigh_min: 0 / n_neigh_max: 94 / n_neigh_avg: 38.5304
shortest rebuild period: 15
-- Cell list stats:
Dimension: 42, 42, 42
n_min    : 0 / n_max: 48 / n_avg: 0.00643829
** run complete **
Number of frames: 1010
(1000, 113050) 1000
Timing sim and analysis 23.710
