/groups/sbinlab/giulio/miniconda3/envs/hoomd/lib/python3.8/hoomd/__init__.py
HOOMD-blue 2.9.3 CUDA (9.0) SINGLE MPI TBB SSE SSE2 
Compiled: 02/18/2022
Copyright (c) 2009-2019 The Regents of the University of Michigan.
-----
You are using HOOMD-blue. Please cite the following:
* J A Anderson, J Glaser, and S C Glotzer. "HOOMD-blue: A Python package for
  high-performance molecular dynamics and hard particle Monte Carlo
  simulations", Computational Materials Science 173 (2020) 109363
-----
-----
You are using MPCD. Please cite the following:
* M P Howard, A Z Panagiotopoulos, and A Nikoubashman. "Efficient mesoscale
  hydrodynamics: Multiparticle collision dynamics with massively parallel GPU
  acceleration", Computer Physics Communications 230 (2018) 10--20
-----
HOOMD-blue is running on the following GPU(s):
 [0]NVIDIA GeForce GTX 780  12 SM_3.5 @ 0.993 GHz, 3022 MiB DRAM
** starting run **
Time 00:00:10 | Step 5695 / 10000 | TPS 562.739 | ETA 00:00:07
Time 00:00:20 | Step 8701 / 10000 | TPS 297.281 | ETA 00:00:04
Time 00:00:25 | Step 10000 / 10000 | TPS 234.976 | ETA 00:00:00
Average TPS: 388.18
---------
-- Neighborlist stats:
73 normal updates / 34 forced updates / 0 dangerous updates
n_neigh_min: 69 / n_neigh_max: 876 / n_neigh_avg: 549.983
shortest rebuild period: 71
-- Cell list stats:
Dimension: 45, 45, 45
n_min    : 0 / n_max: 346 / n_avg: 0.0131797
** run complete **
** starting run **
Time 00:00:35 | Step 17150 / 437340000 | TPS 714.992 | ETA 169:54:07
Time 00:00:45 | Step 50223 / 437340000 | TPS 3307.3 | ETA 36:43:39
Time 00:00:55 | Step 92143 / 437340000 | TPS 4191.96 | ETA 28:58:26
Time 00:01:05 | Step 134278 / 437340000 | TPS 4213.44 | ETA 28:49:24
Time 00:01:15 | Step 181527 / 437340000 | TPS 4724.89 | ETA 25:42:02
Time 00:01:25 | Step 228067 / 437340000 | TPS 4653.86 | ETA 26:05:24
Time 00:01:35 | Step 271750 / 437340000 | TPS 4368.29 | ETA 27:47:34
Time 00:01:45 | Step 320065 / 437340000 | TPS 4831.43 | ETA 25:07:33
Time 00:01:55 | Step 376981 / 437340000 | TPS 5691.56 | ETA 21:19:33
Time 00:02:05 | Step 428891 / 437340000 | TPS 5190.95 | ETA 23:22:47
Time 00:02:15 | Step 484424 / 437340000 | TPS 5553.21 | ETA 21:51:07
Time 00:02:25 | Step 535239 / 437340000 | TPS 5081.48 | ETA 23:52:40
Time 00:02:35 | Step 587963 / 437340000 | TPS 5272.32 | ETA 23:00:38
Time 00:02:45 | Step 640785 / 437340000 | TPS 5282.12 | ETA 22:57:55
Time 00:02:55 | Step 692269 / 437340000 | TPS 5148.34 | ETA 23:33:33
Time 00:03:05 | Step 744859 / 437340000 | TPS 5258.95 | ETA 23:03:39
Time 00:03:15 | Step 801671 / 437340000 | TPS 5681.18 | ETA 21:20:39
Time 00:03:25 | Step 856955 / 437340000 | TPS 5528.35 | ETA 21:55:53
Time 00:03:35 | Step 907744 / 437340000 | TPS 5078.84 | ETA 23:52:11
Time 00:03:45 | Step 962559 / 437340000 | TPS 5481.48 | ETA 22:06:49
Time 00:03:55 | Step 1015302 / 437340000 | TPS 5274.24 | ETA 22:58:47
Time 00:04:05 | Step 1066557 / 437340000 | TPS 5125.3 | ETA 23:38:41
Time 00:04:15 | Step 1122450 / 437340000 | TPS 5589.22 | ETA 21:40:46
Time 00:04:25 | Step 1181054 / 437340000 | TPS 5860.35 | ETA 20:40:25
Time 00:04:35 | Step 1238028 / 437340000 | TPS 5697.39 | ETA 21:15:44
Time 00:04:45 | Step 1294942 / 437340000 | TPS 5691.38 | ETA 21:16:55
Time 00:04:55 | Step 1353702 / 437340000 | TPS 5875.92 | ETA 20:36:38
Time 00:05:05 | Step 1411833 / 437340000 | TPS 5813.08 | ETA 20:49:50
Time 00:05:15 | Step 1467494 / 437340000 | TPS 5565.85 | ETA 21:45:11
Time 00:05:25 | Step 1517880 / 437340000 | TPS 5038.51 | ETA 24:01:38
Time 00:05:35 | Step 1572177 / 437340000 | TPS 5429.62 | ETA 22:17:37
Time 00:05:45 | Step 1630246 / 437340000 | TPS 5806.84 | ETA 20:50:33
Time 00:05:55 | Step 1685241 / 437340000 | TPS 5499.39 | ETA 22:00:18
Time 00:06:05 | Step 1735194 / 437340000 | TPS 4995.23 | ETA 24:13:24
Time 00:06:15 | Step 1788294 / 437340000 | TPS 5309.95 | ETA 22:47:05
Time 00:06:25 | Step 1840655 / 437340000 | TPS 5236.04 | ETA 23:06:13
Time 00:06:35 | Step 1892594 / 437340000 | TPS 5193.74 | ETA 23:17:20
Time 00:06:45 | Step 1948562 / 437340000 | TPS 5596.75 | ETA 21:36:33
Time 00:06:55 | Step 2007255 / 437340000 | TPS 5869.28 | ETA 20:36:11
Time 00:07:05 | Step 2064054 / 437340000 | TPS 5679.85 | ETA 21:17:15
Time 00:07:15 | Step 2117486 / 437340000 | TPS 5343.12 | ETA 22:37:34
Time 00:07:25 | Step 2172639 / 437340000 | TPS 5515.23 | ETA 21:55:02
Time 00:07:35 | Step 2233174 / 437340000 | TPS 6053.31 | ETA 19:57:59
Time 00:07:45 | Step 2292103 / 437340000 | TPS 5892.86 | ETA 20:30:26
Time 00:07:55 | Step 2348282 / 437340000 | TPS 5617.77 | ETA 21:30:31
Time 00:08:05 | Step 2402167 / 437340000 | TPS 5388.49 | ETA 22:25:16
Time 00:08:15 | Step 2457608 / 437340000 | TPS 5544.08 | ETA 21:47:20
Time 00:08:25 | Step 2514902 / 437340000 | TPS 5729.22 | ETA 21:04:56
Time 00:08:35 | Step 2575726 / 437340000 | TPS 6082.35 | ETA 19:51:19
Time 00:08:45 | Step 2632220 / 437340000 | TPS 5649.33 | ETA 21:22:28
Time 00:08:55 | Step 2688554 / 437340000 | TPS 5633.38 | ETA 21:25:56
Time 00:09:05 | Step 2741631 / 437340000 | TPS 5307.61 | ETA 22:44:42
Time 00:09:15 | Step 2797894 / 437340000 | TPS 5626.23 | ETA 21:27:15
Time 00:09:25 | Step 2851467 / 437340000 | TPS 5357.22 | ETA 22:31:43
Time 00:09:35 | Step 2903226 / 437340000 | TPS 5175.75 | ETA 23:18:56
Time 00:09:45 | Step 2956381 / 437340000 | TPS 5315.5 | ETA 22:42:00
Time 00:09:55 | Step 3008406 / 437340000 | TPS 5202.47 | ETA 23:11:25
Time 00:10:05 | Step 3061322 / 437340000 | TPS 5291.56 | ETA 22:47:49
Time 00:10:15 | Step 3119346 / 437340000 | TPS 5802.31 | ETA 20:47:15
Time 00:10:25 | Step 3173755 / 437340000 | TPS 5440.84 | ETA 22:09:57
Time 00:10:35 | Step 3232233 / 437340000 | TPS 5847.62 | ETA 20:37:16
Time 00:10:45 | Step 3290790 / 437340000 | TPS 5855.54 | ETA 20:35:26
Time 00:10:55 | Step 3349118 / 437340000 | TPS 5832.61 | ETA 20:40:07
Time 00:11:05 | Step 3408846 / 437340000 | TPS 5972.77 | ETA 20:10:51
Time 00:11:15 | Step 3467491 / 437340000 | TPS 5864.46 | ETA 20:33:03
Time 00:11:25 | Step 3522933 / 437340000 | TPS 5544.09 | ETA 21:44:08
Time 00:11:35 | Step 3581594 / 437340000 | TPS 5866.06 | ETA 20:32:23
Time 00:11:45 | Step 3643346 / 437340000 | TPS 6175.15 | ETA 19:30:32
Time 00:11:55 | Step 3703327 / 437340000 | TPS 5998.02 | ETA 20:04:56
Time 00:12:05 | Step 3769454 / 437340000 | TPS 6612.55 | ETA 18:12:47
Time 00:12:15 | Step 3831617 / 437340000 | TPS 6216.28 | ETA 19:22:17
Time 00:12:25 | Step 3887889 / 437340000 | TPS 5627.17 | ETA 21:23:48
Time 00:12:35 | Step 3945901 / 437340000 | TPS 5800.69 | ETA 20:45:14
Time 00:12:45 | Step 4007122 / 437340000 | TPS 6122.03 | ETA 19:39:42
Time 00:12:55 | Step 4070361 / 437340000 | TPS 6323.84 | ETA 19:01:53
Time 00:13:05 | Step 4137306 / 437340000 | TPS 6694.48 | ETA 17:58:30
Time 00:13:15 | Step 4202006 / 437340000 | TPS 6469.98 | ETA 18:35:45
Time 00:13:25 | Step 4263810 / 437340000 | TPS 6180.36 | ETA 19:27:53
Time 00:13:35 | Step 4326149 / 437340000 | TPS 6233.86 | ETA 19:17:41
Time 00:13:45 | Step 4389695 / 437340000 | TPS 6354.51 | ETA 18:55:32
Time 00:13:55 | Step 4458041 / 437340000 | TPS 6834.55 | ETA 17:35:37
Time 00:14:05 | Step 4525791 / 437340000 | TPS 6774.78 | ETA 17:44:46
Time 00:14:15 | Step 4588936 / 437340000 | TPS 6314.45 | ETA 19:02:13
Time 00:14:25 | Step 4653458 / 437340000 | TPS 6452.18 | ETA 18:37:40
Time 00:14:35 | Step 4717595 / 437340000 | TPS 6413.69 | ETA 18:44:12
Time 00:14:45 | Step 4784553 / 437340000 | TPS 6695.77 | ETA 17:56:41
Time 00:14:55 | Step 4849191 / 437340000 | TPS 6463.73 | ETA 18:35:10
Time 00:15:05 | Step 4914442 / 437340000 | TPS 6525.1 | ETA 18:24:31
Time 00:15:15 | Step 4980054 / 437340000 | TPS 6561.19 | ETA 18:18:16
Time 00:15:25 | Step 5048805 / 437340000 | TPS 6875.08 | ETA 17:27:57
Time 00:15:35 | Step 5116277 / 437340000 | TPS 6747.12 | ETA 17:47:40
Time 00:15:45 | Step 5179285 / 437340000 | TPS 6300.75 | ETA 19:03:08
Time 00:15:55 | Step 5246213 / 437340000 | TPS 6692.79 | ETA 17:56:01
Time 00:16:05 | Step 5310300 / 437340000 | TPS 6408.68 | ETA 18:43:33
Time 00:16:15 | Step 5376940 / 437340000 | TPS 6663.96 | ETA 18:00:20
Time 00:16:25 | Step 5436250 / 437340000 | TPS 5930.98 | ETA 20:13:41
Time 00:16:35 | Step 5501491 / 437340000 | TPS 6523.98 | ETA 18:23:12
Time 00:16:45 | Step 5563614 / 437340000 | TPS 6212.29 | ETA 19:18:23
Time 00:16:55 | Step 5622927 / 437340000 | TPS 5931.22 | ETA 20:13:07
Time 00:17:05 | Step 5681160 / 437340000 | TPS 5823.25 | ETA 20:35:26
Time 00:17:15 | Step 5746264 / 437340000 | TPS 6510.38 | ETA 18:24:53
Time 00:17:25 | Step 5811809 / 437340000 | TPS 6554.43 | ETA 18:17:17
Time 00:17:35 | Step 5877221 / 437340000 | TPS 6541.02 | ETA 18:19:22
Time 00:17:45 | Step 5941581 / 437340000 | TPS 6435.97 | ETA 18:37:09
Time 00:17:55 | Step 6007183 / 437340000 | TPS 6560.19 | ETA 18:15:50
Time 00:18:05 | Step 6064744 / 437340000 | TPS 5756.08 | ETA 20:48:45
Time 00:18:15 | Step 6123793 / 437340000 | TPS 5904.84 | ETA 20:17:07
Time 00:18:25 | Step 6184776 / 437340000 | TPS 6098.23 | ETA 19:38:21
Time 00:18:35 | Step 6248484 / 437340000 | TPS 6370.51 | ETA 18:47:49
Time 00:18:45 | Step 6313111 / 437340000 | TPS 6462.42 | ETA 18:31:37
Time 00:18:55 | Step 6372733 / 437340000 | TPS 5962.15 | ETA 20:04:43
Time 00:19:05 | Step 6435998 / 437340000 | TPS 6326.43 | ETA 18:55:11
Time 00:19:15 | Step 6501065 / 437340000 | TPS 6506.63 | ETA 18:23:35
Time 00:19:25 | Step 6563474 / 437340000 | TPS 6240.88 | ETA 19:10:24
Time 00:19:35 | Step 6630901 / 437340000 | TPS 6742.53 | ETA 17:44:39
Time 00:19:45 | Step 6695752 / 437340000 | TPS 6485.07 | ETA 18:26:45
Time 00:19:55 | Step 6757749 / 437340000 | TPS 6199.69 | ETA 19:17:32
Time 00:20:05 | Step 6821041 / 437340000 | TPS 6329.13 | ETA 18:53:41
Time 00:20:15 | Step 6878701 / 437340000 | TPS 5765.91 | ETA 20:44:16
Time 00:20:25 | Step 6935756 / 437340000 | TPS 5705.46 | ETA 20:57:17
Time 00:20:35 | Step 6995359 / 437340000 | TPS 5960.11 | ETA 20:03:24
Time 00:20:45 | Step 7055388 / 437340000 | TPS 6002.86 | ETA 19:54:39
Time 00:20:55 | Step 7111440 / 437340000 | TPS 5605.18 | ETA 21:19:15
Time 00:21:05 | Step 7169827 / 437340000 | TPS 5838.69 | ETA 20:27:55
Time 00:21:15 | Step 7230953 / 437340000 | TPS 6112.52 | ETA 19:32:45
Time 00:21:25 | Step 7288706 / 437340000 | TPS 5775.26 | ETA 20:41:04
Time 00:21:35 | Step 7344394 / 437340000 | TPS 5568.75 | ETA 21:26:55
Time 00:21:45 | Step 7397537 / 437340000 | TPS 5314.23 | ETA 22:28:24
Time 00:21:55 | Step 7451334 / 437340000 | TPS 5379.67 | ETA 22:11:49
Time 00:22:05 | Step 7507233 / 437340000 | TPS 5589.82 | ETA 21:21:35
Time 00:22:15 | Step 7566082 / 437340000 | TPS 5884.89 | ETA 20:17:10
Time 00:22:25 | Step 7622741 / 437340000 | TPS 5665.85 | ETA 21:04:03
Time 00:22:35 | Step 7684460 / 437340000 | TPS 6171.82 | ETA 19:20:15
Time 00:22:45 | Step 7743512 / 437340000 | TPS 5905.13 | ETA 20:12:29
Time 00:22:55 | Step 7804359 / 437340000 | TPS 6084.62 | ETA 19:36:33
Time 00:23:05 | Step 7860206 / 437340000 | TPS 5584.69 | ETA 21:21:43
Time 00:23:15 | Step 7918016 / 437340000 | TPS 5781 | ETA 20:38:01
Time 00:23:25 | Step 7977138 / 437340000 | TPS 5912.14 | ETA 20:10:23
Time 00:23:35 | Step 8035491 / 437340000 | TPS 5835.25 | ETA 20:26:10
Time 00:23:45 | Step 8091471 / 437340000 | TPS 5597.99 | ETA 21:17:59
Time 00:23:55 | Step 8151228 / 437340000 | TPS 5975.69 | ETA 19:57:02
Time 00:24:05 | Step 8211655 / 437340000 | TPS 6042.7 | ETA 19:43:36
Time 00:24:15 | Step 8271903 / 437340000 | TPS 6024.77 | ETA 19:46:57
Time 00:24:25 | Step 8333786 / 437340000 | TPS 6188.25 | ETA 19:15:25
Time 00:24:35 | Step 8394298 / 437340000 | TPS 6051.01 | ETA 19:41:28
Time 00:24:45 | Step 8457926 / 437340000 | TPS 6362.73 | ETA 18:43:25
Time 00:24:55 | Step 8525298 / 437340000 | TPS 6737.18 | ETA 17:40:49
Time 00:25:05 | Step 8586669 / 437340000 | TPS 6137.03 | ETA 19:24:23
Time 00:25:15 | Step 8646948 / 437340000 | TPS 6027.85 | ETA 19:45:18
Time 00:25:25 | Step 8710200 / 437340000 | TPS 6325.13 | ETA 18:49:26
Time 00:25:35 | Step 8774887 / 437340000 | TPS 6468.64 | ETA 18:24:12
Time 00:25:45 | Step 8841925 / 437340000 | TPS 6703.73 | ETA 17:45:19
Time 00:25:55 | Step 8899781 / 437340000 | TPS 5785.56 | ETA 20:34:13
Time 00:26:05 | Step 8961836 / 437340000 | TPS 6205.5 | ETA 19:10:32
Time 00:26:15 | Step 9020342 / 437340000 | TPS 5850.52 | ETA 20:20:10
Time 00:26:25 | Step 9080749 / 437340000 | TPS 6040.64 | ETA 19:41:36
Time 00:26:35 | Step 9140700 / 437340000 | TPS 5994.99 | ETA 19:50:26
Time 00:26:45 | Step 9201291 / 437340000 | TPS 6059.03 | ETA 19:37:41
Time 00:26:55 | Step 9260671 / 437340000 | TPS 5937.97 | ETA 20:01:31
Time 00:27:05 | Step 9318187 / 437340000 | TPS 5751.56 | ETA 20:40:18
Time 00:27:15 | Step 9373116 / 437340000 | TPS 5492.59 | ETA 21:38:37
Time 00:27:25 | Step 9429646 / 437340000 | TPS 5652.98 | ETA 21:01:36
Time 00:27:35 | Step 9487707 / 437340000 | TPS 5806.06 | ETA 20:28:10
Time 00:27:45 | Step 9544351 / 437340000 | TPS 5664.38 | ETA 20:58:43
Time 00:27:55 | Step 9606444 / 437340000 | TPS 6209.22 | ETA 19:08:06
Time 00:28:05 | Step 9668961 / 437340000 | TPS 6251.62 | ETA 19:00:09
Time 00:28:15 | Step 9732902 / 437340000 | TPS 6394.09 | ETA 18:34:35
Time 00:28:25 | Step 9791227 / 437340000 | TPS 5832.43 | ETA 20:21:45
Time 00:28:35 | Step 9846381 / 437340000 | TPS 5515.36 | ETA 21:31:49
Time 00:28:45 | Step 9900734 / 437340000 | TPS 5435.27 | ETA 21:50:41
Time 00:28:55 | Step 9950003 / 437340000 | TPS 4926.88 | ETA 24:05:46
Time 00:29:05 | Step 10003553 / 437340000 | TPS 5354.93 | ETA 22:10:02
Time 00:29:15 | Step 10058603 / 437340000 | TPS 5504.92 | ETA 21:33:38
Time 00:29:25 | Step 10110626 / 437340000 | TPS 5202.22 | ETA 22:48:44
Time 00:29:35 | Step 10161730 / 437340000 | TPS 5110.33 | ETA 23:13:11
Time 00:29:45 | Step 10219245 / 437340000 | TPS 5751.49 | ETA 20:37:42
Time 00:29:55 | Step 10275399 / 437340000 | TPS 5615.39 | ETA 21:07:32
Time 00:30:05 | Step 10329624 / 437340000 | TPS 5422.48 | ETA 21:52:28
Time 00:30:15 | Step 10384489 / 437340000 | TPS 5486.13 | ETA 21:37:04
Time 00:30:25 | Step 10437892 / 437340000 | TPS 5340.24 | ETA 22:12:20
Time 00:30:35 | Step 10498294 / 437340000 | TPS 6040.01 | ETA 19:37:49
Time 00:30:45 | Step 10560877 / 437340000 | TPS 6258.22 | ETA 18:56:34
Time 00:30:55 | Step 10619638 / 437340000 | TPS 5876.07 | ETA 20:10:19
Time 00:31:05 | Step 10675662 / 437340000 | TPS 5602.37 | ETA 21:09:17
Time 00:31:15 | Step 10730718 / 437340000 | TPS 5505.54 | ETA 21:31:27
Time 00:31:25 | Step 10791063 / 437340000 | TPS 6034.32 | ETA 19:38:07
Time 00:31:35 | Step 10848430 / 437340000 | TPS 5736.7 | ETA 20:39:04
Time 00:31:45 | Step 10904834 / 437340000 | TPS 5640.14 | ETA 21:00:07
Time 00:31:55 | Step 10960573 / 437340000 | TPS 5573.85 | ETA 21:14:56
Time 00:32:05 | Step 11012232 / 437340000 | TPS 5165.88 | ETA 22:55:27
Time 00:32:15 | Step 11060456 / 437340000 | TPS 4822.35 | ETA 24:33:16
Time 00:32:25 | Step 11110667 / 437340000 | TPS 5020.94 | ETA 23:34:50
Time 00:32:35 | Step 11159377 / 437340000 | TPS 4870.99 | ETA 24:18:13
Time 00:32:45 | Step 11209089 / 437340000 | TPS 4970.85 | ETA 23:48:45
Time 00:32:55 | Step 11261541 / 437340000 | TPS 5245.18 | ETA 22:33:52
Time 00:33:05 | Step 11319263 / 437340000 | TPS 5772.12 | ETA 20:30:06
Time 00:33:15 | Step 11376040 / 437340000 | TPS 5677.66 | ETA 20:50:24
Time 00:33:25 | Step 11427393 / 437340000 | TPS 5135.28 | ETA 23:02:18
Time 00:33:35 | Step 11483080 / 437340000 | TPS 5568.68 | ETA 21:14:33
Time 00:33:45 | Step 11537536 / 437340000 | TPS 5445.59 | ETA 21:43:12
Time 00:33:55 | Step 11591780 / 437340000 | TPS 5424.34 | ETA 21:48:08
Time 00:34:05 | Step 11642362 / 437340000 | TPS 5058.16 | ETA 23:22:40
Time 00:34:15 | Step 11696385 / 437340000 | TPS 5402.28 | ETA 21:53:09
Time 00:34:25 | Step 11751465 / 437340000 | TPS 5507.94 | ETA 21:27:48
Time 00:34:35 | Step 11806458 / 437340000 | TPS 5499.26 | ETA 21:29:40
Time 00:34:45 | Step 11865075 / 437340000 | TPS 5861.68 | ETA 20:09:45
Time 00:34:55 | Step 11925833 / 437340000 | TPS 6075.73 | ETA 19:26:58
Time 00:35:05 | Step 11982763 / 437340000 | TPS 5692.8 | ETA 20:45:18
Time 00:35:15 | Step 12038584 / 437340000 | TPS 5582.03 | ETA 21:09:51
Time 00:35:25 | Step 12096150 / 437340000 | TPS 5756.52 | ETA 20:31:11
Time 00:35:35 | Step 12153669 / 437340000 | TPS 5751.81 | ETA 20:32:02
Time 00:35:45 | Step 12208793 / 437340000 | TPS 5512.37 | ETA 21:25:23
Time 00:35:55 | Step 12268888 / 437340000 | TPS 6009.25 | ETA 19:38:56
Time 00:36:05 | Step 12325402 / 437340000 | TPS 5651.32 | ETA 20:53:26
Time 00:36:15 | Step 12383408 / 437340000 | TPS 5800.6 | ETA 20:21:00
Time 00:36:25 | Step 12437042 / 437340000 | TPS 5363.32 | ETA 22:00:23
Time 00:36:35 | Step 12495198 / 437340000 | TPS 5815.56 | ETA 20:17:33
Time 00:36:45 | Step 12546465 / 437340000 | TPS 5126.7 | ETA 23:00:59
Time 00:36:55 | Step 12599261 / 437340000 | TPS 5279.53 | ETA 22:20:50
Time 00:37:05 | Step 12650843 / 437340000 | TPS 5158.17 | ETA 22:52:13
Time 00:37:15 | Step 12702835 / 437340000 | TPS 5199.19 | ETA 22:41:13
Time 00:37:25 | Step 12759270 / 437340000 | TPS 5643.46 | ETA 20:53:54
Time 00:37:35 | Step 12818132 / 437340000 | TPS 5886.12 | ETA 20:02:02
Time 00:37:45 | Step 12873106 / 437340000 | TPS 5497.35 | ETA 21:26:53
Time 00:37:55 | Step 12927567 / 437340000 | TPS 5446.01 | ETA 21:38:50
Time 00:38:05 | Step 12983733 / 437340000 | TPS 5616.59 | ETA 20:59:14
Time 00:38:15 | Step 13038296 / 437340000 | TPS 5456.24 | ETA 21:36:04
Time 00:38:25 | Step 13095366 / 437340000 | TPS 5706.98 | ETA 20:38:57
Time 00:38:35 | Step 13151415 / 437340000 | TPS 5604.88 | ETA 21:01:22
Time 00:38:45 | Step 13205077 / 437340000 | TPS 5366.12 | ETA 21:57:19
Time 00:38:55 | Step 13260595 / 437340000 | TPS 5551.8 | ETA 21:13:05
Time 00:39:05 | Step 13316591 / 437340000 | TPS 5599.56 | ETA 21:02:04
Time 00:39:15 | Step 13369922 / 437340000 | TPS 5333.02 | ETA 22:04:59
Time 00:39:25 | Step 13425708 / 437340000 | TPS 5578.52 | ETA 21:06:30
Time 00:39:35 | Step 13480339 / 437340000 | TPS 5463.02 | ETA 21:33:07
Time 00:39:45 | Step 13534360 / 437340000 | TPS 5401.91 | ETA 21:47:34
Time 00:39:55 | Step 13588107 / 437340000 | TPS 5374.67 | ETA 21:54:02
Time 00:40:05 | Step 13640919 / 437340000 | TPS 5281.13 | ETA 22:17:08
Time 00:40:15 | Step 13694721 / 437340000 | TPS 5380.17 | ETA 21:52:22
Time 00:40:25 | Step 13751269 / 437340000 | TPS 5654.77 | ETA 20:48:28
Time 00:40:35 | Step 13809099 / 437340000 | TPS 5782.93 | ETA 20:20:38
Time 00:40:45 | Step 13862665 / 437340000 | TPS 5356.54 | ETA 21:57:37
Time 00:40:55 | Step 13917337 / 437340000 | TPS 5466.91 | ETA 21:30:51
Time 00:41:05 | Step 13970710 / 437340000 | TPS 5337.28 | ETA 22:02:03
Time 00:41:15 | Step 14021503 / 437340000 | TPS 5079.23 | ETA 23:09:03
Time 00:41:25 | Step 14070464 / 437340000 | TPS 4896.03 | ETA 24:00:51
Time 00:41:35 | Step 14120891 / 437340000 | TPS 5042.69 | ETA 23:18:47
Time 00:41:45 | Step 14172520 / 437340000 | TPS 5162.89 | ETA 22:46:03
Time 00:41:55 | Step 14228101 / 437340000 | TPS 5558.02 | ETA 21:08:46
Time 00:42:05 | Step 14283829 / 437340000 | TPS 5572.78 | ETA 21:05:14
Time 00:42:15 | Step 14339679 / 437340000 | TPS 5584.94 | ETA 21:02:19
Time 00:42:25 | Step 14394842 / 437340000 | TPS 5516.27 | ETA 21:17:52
Time 00:42:35 | Step 14451881 / 437340000 | TPS 5703.56 | ETA 20:35:44
Time 00:42:45 | Step 14508832 / 437340000 | TPS 5694.96 | ETA 20:37:26
Time 00:42:55 | Step 14565096 / 437340000 | TPS 5626.36 | ETA 20:52:21
Time 00:43:05 | Step 14615907 / 437340000 | TPS 5081.09 | ETA 23:06:35
Time 00:43:15 | Step 14669852 / 437340000 | TPS 5394.35 | ETA 21:45:54
Time 00:43:25 | Step 14720401 / 437340000 | TPS 5054.78 | ETA 23:13:27
Time 00:43:35 | Step 14775009 / 437340000 | TPS 5460.79 | ETA 21:29:41
Time 00:43:45 | Step 14828135 / 437340000 | TPS 5312.56 | ETA 22:05:30
Time 00:43:55 | Step 14883723 / 437340000 | TPS 5558.74 | ETA 21:06:38
Time 00:44:05 | Step 14940959 / 437340000 | TPS 5723.59 | ETA 20:29:59
Time 00:44:15 | Step 14997698 / 437340000 | TPS 5673.87 | ETA 20:40:36
Time 00:44:25 | Step 15048069 / 437340000 | TPS 5036.73 | ETA 23:17:22
Time 00:44:35 | Step 15100080 / 437340000 | TPS 5201.04 | ETA 22:33:03
Time 00:44:45 | Step 15154251 / 437340000 | TPS 5417.09 | ETA 21:38:55
Time 00:44:55 | Step 15211460 / 437340000 | TPS 5720.9 | ETA 20:29:47
Time 00:45:05 | Step 15271129 / 437340000 | TPS 5966.89 | ETA 19:38:55
Time 00:45:15 | Step 15325006 / 437340000 | TPS 5387.68 | ETA 21:45:29
Time 00:45:25 | Step 15376002 / 437340000 | TPS 5099.54 | ETA 22:59:05
Time 00:45:35 | Step 15429889 / 437340000 | TPS 5388.69 | ETA 21:44:55
Time 00:45:45 | Step 15484638 / 437340000 | TPS 5474.84 | ETA 21:24:13
Time 00:45:55 | Step 15538189 / 437340000 | TPS 5355.04 | ETA 21:52:47
Time 00:46:05 | Step 15589885 / 437340000 | TPS 5169.36 | ETA 22:39:46
Time 00:46:15 | Step 15644077 / 437340000 | TPS 5419.11 | ETA 21:36:56
Time 00:46:25 | Step 15701823 / 437340000 | TPS 5774.54 | ETA 20:16:56
Time 00:46:35 | Step 15760781 / 437340000 | TPS 5895.75 | ETA 19:51:45
Time 00:46:45 | Step 15820608 / 437340000 | TPS 5982.63 | ETA 19:34:17
Time 00:46:55 | Step 15882544 / 437340000 | TPS 6193.54 | ETA 18:54:07
Time 00:47:05 | Step 15940691 / 437340000 | TPS 5814.63 | ETA 20:07:52
Time 00:47:15 | Step 15994153 / 437340000 | TPS 5346.15 | ETA 21:53:32
Time 00:47:25 | Step 16048969 / 437340000 | TPS 5481.55 | ETA 21:20:56
Time 00:47:35 | Step 16108125 / 437340000 | TPS 5915.52 | ETA 19:46:47
Time 00:47:45 | Step 16164460 / 437340000 | TPS 5633.47 | ETA 20:46:03
Time 00:47:55 | Step 16220402 / 437340000 | TPS 5593.94 | ETA 20:54:41
Time 00:48:05 | Step 16271633 / 437340000 | TPS 5123.03 | ETA 22:49:51
Time 00:48:15 | Step 16323968 / 437340000 | TPS 5233.46 | ETA 22:20:46
Time 00:48:25 | Step 16375052 / 437340000 | TPS 5108.38 | ETA 22:53:26
Time 00:48:35 | Step 16428029 / 437340000 | TPS 5297.69 | ETA 22:04:12
Time 00:48:45 | Step 16479887 / 437340000 | TPS 5185.79 | ETA 22:32:36
Time 00:48:55 | Step 16533934 / 437340000 | TPS 5404.55 | ETA 21:37:41
Time 00:49:05 | Step 16586317 / 437340000 | TPS 5238.25 | ETA 22:18:43
Time 00:49:15 | Step 16638433 / 437340000 | TPS 5211.52 | ETA 22:25:25
Time 00:49:25 | Step 16694836 / 437340000 | TPS 5640.27 | ETA 20:42:58
Time 00:49:35 | Step 16750428 / 437340000 | TPS 5559.16 | ETA 21:00:57
Time 00:49:45 | Step 16805232 / 437340000 | TPS 5480.33 | ETA 21:18:55
Time 00:49:55 | Step 16860950 / 437340000 | TPS 5571.73 | ETA 20:57:46
Time 00:50:05 | Step 16910444 / 437340000 | TPS 4949.32 | ETA 23:35:46
Time 00:50:15 | Step 16962326 / 437340000 | TPS 5188.17 | ETA 22:30:26
Time 00:50:25 | Step 17022211 / 437340000 | TPS 5988.46 | ETA 19:29:47
Time 00:50:35 | Step 17082236 / 437340000 | TPS 6002.43 | ETA 19:26:54
Time 00:50:45 | Step 17137426 / 437340000 | TPS 5518.99 | ETA 21:08:57
Time 00:50:55 | Step 17195413 / 437340000 | TPS 5798.68 | ETA 20:07:35
Time 00:51:05 | Step 17257714 / 437340000 | TPS 6230.07 | ETA 18:43:48
Time 00:51:15 | Step 17318044 / 437340000 | TPS 6032.99 | ETA 19:20:20
Time 00:51:25 | Step 17370692 / 437340000 | TPS 5264.66 | ETA 22:09:31
Time 00:51:35 | Step 17426042 / 437340000 | TPS 5534.92 | ETA 21:04:26
Time 00:51:45 | Step 17481692 / 437340000 | TPS 5565 | ETA 20:57:26
Time 00:51:55 | Step 17539204 / 437340000 | TPS 5751.12 | ETA 20:16:34
Time 00:52:05 | Step 17592992 / 437340000 | TPS 5378.79 | ETA 21:40:37
Time 00:52:15 | Step 17647664 / 437340000 | TPS 5467.14 | ETA 21:19:26
Time 00:52:25 | Step 17704133 / 437340000 | TPS 5646.88 | ETA 20:38:32
Time 00:52:35 | Step 17757457 / 437340000 | TPS 5332.25 | ETA 21:51:27
Time 00:52:45 | Step 17810765 / 437340000 | TPS 5330.71 | ETA 21:51:40
Time 00:52:55 | Step 17859899 / 437340000 | TPS 4913.34 | ETA 23:42:55
Time 00:53:05 | Step 17913541 / 437340000 | TPS 5364.17 | ETA 21:43:10
Time 00:53:15 | Step 17964692 / 437340000 | TPS 5115.1 | ETA 22:46:27
Time 00:53:25 | Step 18020272 / 437340000 | TPS 5558 | ETA 20:57:24
Time 00:53:35 | Step 18074320 / 437340000 | TPS 5404.74 | ETA 21:32:53
Time 00:53:45 | Step 18129367 / 437340000 | TPS 5504.69 | ETA 21:09:15
Time 00:53:55 | Step 18183882 / 437340000 | TPS 5451.43 | ETA 21:21:29
Time 00:54:05 | Step 18238544 / 437340000 | TPS 5466.15 | ETA 21:17:52
Time 00:54:15 | Step 18299356 / 437340000 | TPS 6081.16 | ETA 19:08:27
Time 00:54:25 | Step 18361699 / 437340000 | TPS 6234.27 | ETA 18:40:05
Time 00:54:35 | Step 18422654 / 437340000 | TPS 6095.42 | ETA 19:05:26
Time 00:54:45 | Step 18483415 / 437340000 | TPS 6076.1 | ETA 19:08:55
Time 00:54:55 | Step 18538598 / 437340000 | TPS 5518.2 | ETA 21:04:54
Time 00:55:05 | Step 18595090 / 437340000 | TPS 5649.17 | ETA 20:35:25
Time 00:55:15 | Step 18647783 / 437340000 | TPS 5269.22 | ETA 22:04:19
Time 00:55:25 | Step 18703777 / 437340000 | TPS 5599.4 | ETA 20:46:04
Time 00:55:35 | Step 18752403 / 437340000 | TPS 4862.59 | ETA 23:54:43
Time 00:55:45 | Step 18808491 / 437340000 | TPS 5608.76 | ETA 20:43:41
Time 00:55:55 | Step 18862387 / 437340000 | TPS 5389.54 | ETA 21:34:06
Time 00:56:05 | Step 18916811 / 437340000 | TPS 5442.4 | ETA 21:21:22
Time 00:56:15 | Step 18973869 / 437340000 | TPS 5705.77 | ETA 20:22:03
Time 00:56:25 | Step 19027022 / 437340000 | TPS 5314.96 | ETA 21:51:44
Time 00:56:35 | Step 19074960 / 437340000 | TPS 4793.75 | ETA 24:14:12
Time 00:56:45 | Step 19124626 / 437340000 | TPS 4966.58 | ETA 23:23:25
Time 00:56:55 | Step 19176973 / 437340000 | TPS 5234.67 | ETA 22:11:23
Time 00:57:05 | Step 19229889 / 437340000 | TPS 5291.56 | ETA 21:56:54
Time 00:57:15 | Step 19281888 / 437340000 | TPS 5199.85 | ETA 22:19:58
Time 00:57:25 | Step 19333838 / 437340000 | TPS 5194.98 | ETA 22:21:03
Time 00:57:35 | Step 19387201 / 437340000 | TPS 5336.16 | ETA 21:45:24
Time 00:57:45 | Step 19438602 / 437340000 | TPS 5140.03 | ETA 22:35:03
Time 00:57:55 | Step 19488637 / 437340000 | TPS 5003.45 | ETA 23:11:52
Time 00:58:05 | Step 19541222 / 437340000 | TPS 5258.43 | ETA 22:04:13
Time 00:58:15 | Step 19595076 / 437340000 | TPS 5385.34 | ETA 21:32:50
Time 00:58:25 | Step 19653929 / 437340000 | TPS 5885.3 | ETA 19:42:51
Time 00:58:35 | Step 19713285 / 437340000 | TPS 5935.56 | ETA 19:32:40
Time 00:58:45 | Step 19771790 / 437340000 | TPS 5850.46 | ETA 19:49:33
Time 00:58:55 | Step 19832128 / 437340000 | TPS 6033.71 | ETA 19:13:15
Time 00:59:05 | Step 19885787 / 437340000 | TPS 5365.88 | ETA 21:36:37
Time 00:59:15 | Step 19941755 / 437340000 | TPS 5596.69 | ETA 20:42:59
Time 00:59:25 | Step 19996607 / 437340000 | TPS 5485.19 | ETA 21:08:05
Time 00:59:35 | Step 20053108 / 437340000 | TPS 5650.01 | ETA 20:30:55
Time 00:59:45 | Step 20110839 / 437340000 | TPS 5773.04 | ETA 20:04:32
Time 00:59:55 | Step 20170187 / 437340000 | TPS 5934.78 | ETA 19:31:32
Time 01:00:05 | Step 20228034 / 437340000 | TPS 5784.65 | ETA 20:01:46
Time 01:00:15 | Step 20288662 / 437340000 | TPS 6062.76 | ETA 19:06:29
Time 01:00:25 | Step 20347862 / 437340000 | TPS 5919.97 | ETA 19:33:58
Time 01:00:35 | Step 20403301 / 437340000 | TPS 5543.67 | ETA 20:53:29
Time 01:00:45 | Step 20461568 / 437340000 | TPS 5826.66 | ETA 19:52:26
Time 01:00:55 | Step 20522162 / 437340000 | TPS 6059.34 | ETA 19:06:29
Time 01:01:05 | Step 20581111 / 437340000 | TPS 5894.83 | ETA 19:38:18
Time 01:01:15 | Step 20643488 / 437340000 | TPS 6237.64 | ETA 18:33:23
Time 01:01:25 | Step 20704579 / 437340000 | TPS 6109.07 | ETA 18:56:39
Time 01:01:35 | Step 20763754 / 437340000 | TPS 5917.43 | ETA 19:33:18
Time 01:01:45 | Step 20824605 / 437340000 | TPS 6085.02 | ETA 19:00:49
Time 01:01:55 | Step 20886048 / 437340000 | TPS 6144.22 | ETA 18:49:39
Time 01:02:05 | Step 20945712 / 437340000 | TPS 5966.36 | ETA 19:23:10
Time 01:02:15 | Step 21006367 / 437340000 | TPS 6065.47 | ETA 19:03:59
Time 01:02:25 | Step 21066726 / 437340000 | TPS 6035.7 | ETA 19:09:28
Time 01:02:35 | Step 21124062 / 437340000 | TPS 5733.53 | ETA 20:09:53
Time 01:02:45 | Step 21178029 / 437340000 | TPS 5396.65 | ETA 21:25:14
Time 01:02:55 | Step 21238004 / 437340000 | TPS 5997.49 | ETA 19:16:19
Time 01:03:05 | Step 21295879 / 437340000 | TPS 5787.46 | ETA 19:58:07
Time 01:03:15 | Step 21348837 / 437340000 | TPS 5295.77 | ETA 21:49:11
Time 01:03:25 | Step 21401172 / 437340000 | TPS 5233.44 | ETA 22:04:37
Time 01:03:35 | Step 21454015 / 437340000 | TPS 5284.26 | ETA 21:51:42
Time 01:03:45 | Step 21506646 / 437340000 | TPS 5262.81 | ETA 21:56:53
Time 01:03:55 | Step 21561322 / 437340000 | TPS 5467.56 | ETA 21:07:24
Time 01:04:05 | Step 21616139 / 437340000 | TPS 5481.53 | ETA 21:04:00
Time 01:04:15 | Step 21672576 / 437340000 | TPS 5643.67 | ETA 20:27:32
Time 01:04:25 | Step 21729217 / 437340000 | TPS 5664.07 | ETA 20:22:56
Time 01:04:35 | Step 21787766 / 437340000 | TPS 5854.9 | ETA 19:42:55
Time 01:04:45 | Step 21844290 / 437340000 | TPS 5652.35 | ETA 20:25:08
Time 01:04:55 | Step 21901311 / 437340000 | TPS 5701.77 | ETA 20:14:21
Time 01:05:05 | Step 21957384 / 437340000 | TPS 5605.22 | ETA 20:35:06
Time 01:05:15 | Step 22016563 / 437340000 | TPS 5917.61 | ETA 19:29:44
Time 01:05:25 | Step 22077068 / 437340000 | TPS 6050.32 | ETA 19:03:54
Time 01:05:35 | Step 22134907 / 437340000 | TPS 5783.83 | ETA 19:56:27
Time 01:05:45 | Step 22189465 / 437340000 | TPS 5455.78 | ETA 21:08:13
Time 01:05:55 | Step 22240065 / 437340000 | TPS 5059.94 | ETA 22:47:16
Time 01:06:05 | Step 22294825 / 437340000 | TPS 5475.95 | ETA 21:03:14
Time 01:06:15 | Step 22349334 / 437340000 | TPS 5450.88 | ETA 21:08:52
Time 01:06:25 | Step 22403041 / 437340000 | TPS 5370.69 | ETA 21:27:39
Time 01:06:35 | Step 22460355 / 437340000 | TPS 5731.39 | ETA 20:06:27
Time 01:06:45 | Step 22512604 / 437340000 | TPS 5224.88 | ETA 22:03:14
Time 01:06:55 | Step 22566376 / 437340000 | TPS 5377.19 | ETA 21:25:35
Time 01:07:05 | Step 22615117 / 437340000 | TPS 4873.88 | ETA 23:38:11
Time 01:07:15 | Step 22666865 / 437340000 | TPS 5174.79 | ETA 22:15:33
Time 01:07:25 | Step 22722537 / 437340000 | TPS 5567.16 | ETA 20:41:15
Time 01:07:35 | Step 22775085 / 437340000 | TPS 5254.68 | ETA 21:54:54
Time 01:07:45 | Step 22830518 / 437340000 | TPS 5543.27 | ETA 20:46:17
Time 01:07:55 | Step 22883753 / 437340000 | TPS 5323.49 | ETA 21:37:34
Time 01:08:05 | Step 22937692 / 437340000 | TPS 5393.59 | ETA 21:20:32
Time 01:08:15 | Step 22989070 / 437340000 | TPS 5137.79 | ETA 22:24:07
Time 01:08:25 | Step 23044208 / 437340000 | TPS 5513.73 | ETA 20:52:18
Time 01:08:35 | Step 23098718 / 437340000 | TPS 5451 | ETA 21:06:33
Time 01:08:45 | Step 23154378 / 437340000 | TPS 5565.95 | ETA 20:40:14
Time 01:08:55 | Step 23211761 / 437340000 | TPS 5738.28 | ETA 20:02:49
Time 01:09:05 | Step 23271224 / 437340000 | TPS 5946.21 | ETA 19:20:35
Time 01:09:15 | Step 23326726 / 437340000 | TPS 5550.18 | ETA 20:43:14
Time 01:09:25 | Step 23377678 / 437340000 | TPS 5095.12 | ETA 22:34:06
Time 01:09:35 | Step 23431117 / 437340000 | TPS 5343.84 | ETA 21:30:55
Time 01:09:45 | Step 23482136 / 437340000 | TPS 5101.88 | ETA 22:31:58
Time 01:09:55 | Step 23536210 / 437340000 | TPS 5407.33 | ETA 21:15:26
Time 01:10:05 | Step 23587417 / 437340000 | TPS 5120.68 | ETA 22:26:40
Time 01:10:15 | Step 23640107 / 437340000 | TPS 5268.94 | ETA 21:48:36
Time 01:10:25 | Step 23693347 / 437340000 | TPS 5323.94 | ETA 21:34:55
Time 01:10:35 | Step 23748003 / 437340000 | TPS 5465.54 | ETA 21:01:12
Time 01:10:45 | Step 23809242 / 437340000 | TPS 6123.9 | ETA 18:45:27
Time 01:10:55 | Step 23866677 / 437340000 | TPS 5743.44 | ETA 19:59:50
Time 01:11:05 | Step 23915172 / 437340000 | TPS 4849.45 | ETA 23:40:51
Time 01:11:15 | Step 23968074 / 437340000 | TPS 5290.2 | ETA 21:42:19
Time 01:11:25 | Step 24018628 / 437340000 | TPS 5055.39 | ETA 22:42:38
Time 01:11:35 | Step 24066521 / 437340000 | TPS 4789.23 | ETA 23:58:12
Time 01:11:45 | Step 24121129 / 437340000 | TPS 5460.73 | ETA 21:01:11
Time 01:11:55 | Step 24177601 / 437340000 | TPS 5647.16 | ETA 20:19:22
Time 01:12:05 | Step 24238390 / 437340000 | TPS 6078.9 | ETA 18:52:36
Time 01:12:15 | Step 24296473 / 437340000 | TPS 5808.3 | ETA 19:45:12
Time 01:12:25 | Step 24352691 / 437340000 | TPS 5621.72 | ETA 20:24:22
Time 01:12:35 | Step 24405330 / 437340000 | TPS 5263.89 | ETA 21:47:26
Time 01:12:45 | Step 24454156 / 437340000 | TPS 4882.39 | ETA 23:29:26
Time 01:12:55 | Step 24504678 / 437340000 | TPS 5052.12 | ETA 22:41:55
Time 01:13:05 | Step 24557261 / 437340000 | TPS 5258.27 | ETA 21:48:21
Time 01:13:15 | Step 24607853 / 437340000 | TPS 5059.18 | ETA 22:39:40
Time 01:13:25 | Step 24663970 / 437340000 | TPS 5611.51 | ETA 20:25:40
Time 01:13:35 | Step 24718789 / 437340000 | TPS 5481.84 | ETA 20:54:30
Time 01:13:45 | Step 24772131 / 437340000 | TPS 5334.19 | ETA 21:29:04
Time 01:13:55 | Step 24826417 / 437340000 | TPS 5428.59 | ETA 21:06:29
Time 01:14:05 | Step 24882651 / 437340000 | TPS 5623.35 | ETA 20:22:27
Time 01:14:15 | Step 24934929 / 437340000 | TPS 5227.56 | ETA 21:54:50
Time 01:14:25 | Step 24987701 / 437340000 | TPS 5277.14 | ETA 21:42:19
Time 01:14:35 | Step 25039766 / 437340000 | TPS 5206.42 | ETA 21:59:50
Time 01:14:45 | Step 25091733 / 437340000 | TPS 5196.44 | ETA 22:02:12
Time 01:14:55 | Step 25145675 / 437340000 | TPS 5394.15 | ETA 21:13:35
Time 01:15:05 | Step 25198264 / 437340000 | TPS 5258.86 | ETA 21:46:10
Time 01:15:15 | Step 25253390 / 437340000 | TPS 5512.6 | ETA 20:45:53
Time 01:15:25 | Step 25309663 / 437340000 | TPS 5627.28 | ETA 20:20:20
Time 01:15:35 | Step 25358156 / 437340000 | TPS 4849.27 | ETA 23:35:57
Time 01:15:45 | Step 25409704 / 437340000 | TPS 5154.78 | ETA 22:11:52
Time 01:15:55 | Step 25461602 / 437340000 | TPS 5189.44 | ETA 22:02:48
Time 01:16:05 | Step 25517292 / 437340000 | TPS 5568.96 | ETA 20:32:29
Time 01:16:15 | Step 25571497 / 437340000 | TPS 5420.43 | ETA 21:06:06
Time 01:16:25 | Step 25630415 / 437340000 | TPS 5891.73 | ETA 19:24:39
Time 01:16:35 | Step 25689233 / 437340000 | TPS 5881.72 | ETA 19:26:28
Time 01:16:45 | Step 25747336 / 437340000 | TPS 5810.28 | ETA 19:40:38
Time 01:16:55 | Step 25807510 / 437340000 | TPS 6017.35 | ETA 18:59:50
Time 01:17:05 | Step 25868031 / 437340000 | TPS 6052.06 | ETA 18:53:08
Time 01:17:15 | Step 25924157 / 437340000 | TPS 5612.57 | ETA 20:21:42
Time 01:17:25 | Step 25981202 / 437340000 | TPS 5704.37 | ETA 20:01:52
Time 01:17:35 | Step 26044890 / 437340000 | TPS 6368.73 | ETA 17:56:20
Time 01:17:45 | Step 26106742 / 437340000 | TPS 6185.16 | ETA 18:28:07
Time 01:17:55 | Step 26168668 / 437340000 | TPS 6192.56 | ETA 18:26:37
Time 01:18:05 | Step 26230586 / 437340000 | TPS 6191.72 | ETA 18:26:36
Time 01:18:15 | Step 26288177 / 437340000 | TPS 5759.04 | ETA 19:49:35
Time 01:18:25 | Step 26347903 / 437340000 | TPS 5972.56 | ETA 19:06:53
Time 01:18:35 | Step 26408300 / 437340000 | TPS 6039.62 | ETA 18:53:59
Time 01:18:45 | Step 26470632 / 437340000 | TPS 6233.15 | ETA 18:18:36
Time 01:18:55 | Step 26531009 / 437340000 | TPS 6037.69 | ETA 18:54:00
Time 01:19:05 | Step 26591813 / 437340000 | TPS 6080.35 | ETA 18:45:53
Time 01:19:15 | Step 26653294 / 437340000 | TPS 6148.04 | ETA 18:33:19
Time 01:19:25 | Step 26713085 / 437340000 | TPS 5979.07 | ETA 19:04:37
Time 01:19:35 | Step 26774497 / 437340000 | TPS 6140.9 | ETA 18:34:17
Time 01:19:45 | Step 26831360 / 437340000 | TPS 5686.28 | ETA 20:03:12
Time 01:19:55 | Step 26889105 / 437340000 | TPS 5774.48 | ETA 19:44:40
Time 01:20:05 | Step 26953363 / 437340000 | TPS 6425.67 | ETA 17:44:26
Time 01:20:15 | Step 27017112 / 437340000 | TPS 6374.88 | ETA 17:52:45
Time 01:20:25 | Step 27085666 / 437340000 | TPS 6855.37 | ETA 16:37:24
Time 01:20:35 | Step 27146074 / 437340000 | TPS 6040.65 | ETA 18:51:45
Time 01:20:45 | Step 27200833 / 437340000 | TPS 5475.84 | ETA 20:48:19
Time 01:20:55 | Step 27260682 / 437340000 | TPS 5984.83 | ETA 19:01:59
Time 01:21:05 | Step 27322631 / 437340000 | TPS 6194.54 | ETA 18:23:10
Time 01:21:15 | Step 27380240 / 437340000 | TPS 5760.89 | ETA 19:46:02
Time 01:21:25 | Step 27439639 / 437340000 | TPS 5939.88 | ETA 19:10:08
Time 01:21:35 | Step 27508208 / 437340000 | TPS 6856.89 | ETA 16:36:09
Time 01:21:45 | Step 27573628 / 437340000 | TPS 6542 | ETA 17:23:56
Time 01:21:55 | Step 27638454 / 437340000 | TPS 6482.55 | ETA 17:33:20
Time 01:22:05 | Step 27704954 / 437340000 | TPS 6649.96 | ETA 17:06:39
Time 01:22:15 | Step 27768902 / 437340000 | TPS 6394.79 | ETA 17:47:27
Time 01:22:25 | Step 27834162 / 437340000 | TPS 6525.93 | ETA 17:25:50
Time 01:22:35 | Step 27899083 / 437340000 | TPS 6492.08 | ETA 17:31:07
Time 01:22:45 | Step 27964627 / 437340000 | TPS 6554.4 | ETA 17:20:58
Time 01:22:55 | Step 28029088 / 437340000 | TPS 6445.77 | ETA 17:38:20
Time 01:23:05 | Step 28087906 / 437340000 | TPS 5881.76 | ETA 19:19:39
Time 01:23:15 | Step 28149833 / 437340000 | TPS 6192.63 | ETA 18:21:16
Time 01:23:25 | Step 28211158 / 437340000 | TPS 6132.44 | ETA 18:31:55
Time 01:23:35 | Step 28272604 / 437340000 | TPS 6144.53 | ETA 18:29:34
Time 01:23:45 | Step 28336595 / 437340000 | TPS 6399.1 | ETA 17:45:15
Time 01:23:55 | Step 28395995 / 437340000 | TPS 5939.83 | ETA 19:07:27
Time 01:24:05 | Step 28455167 / 437340000 | TPS 5917.06 | ETA 19:11:42
Time 01:24:15 | Step 28512478 / 437340000 | TPS 5731.03 | ETA 19:48:55
Time 01:24:25 | Step 28565096 / 437340000 | TPS 5261.74 | ETA 21:34:48
Time 01:24:35 | Step 28620937 / 437340000 | TPS 5584.08 | ETA 20:19:53
Time 01:24:45 | Step 28675895 / 437340000 | TPS 5495.71 | ETA 20:39:20
Time 01:24:55 | Step 28732894 / 437340000 | TPS 5699.82 | ETA 19:54:47
Time 01:25:05 | Step 28790716 / 437340000 | TPS 5782.18 | ETA 19:37:36
Time 01:25:15 | Step 28847836 / 437340000 | TPS 5711.92 | ETA 19:51:55
Time 01:25:25 | Step 28904193 / 437340000 | TPS 5635.68 | ETA 20:07:53
Time 01:25:35 | Step 28955552 / 437340000 | TPS 5135.87 | ETA 22:05:16
Time 01:25:45 | Step 29013650 / 437340000 | TPS 5809.73 | ETA 19:31:23
Time 01:25:55 | Step 29069823 / 437340000 | TPS 5617.23 | ETA 20:11:21
Time 01:26:05 | Step 29127209 / 437340000 | TPS 5738.6 | ETA 19:45:34
Time 01:26:15 | Step 29182699 / 437340000 | TPS 5548.99 | ETA 20:25:55
Time 01:26:25 | Step 29237920 / 437340000 | TPS 5522.07 | ETA 20:31:43
Time 01:26:35 | Step 29297868 / 437340000 | TPS 5994.77 | ETA 18:54:26
Time 01:26:45 | Step 29359763 / 437340000 | TPS 6189.48 | ETA 18:18:35
Time 01:26:55 | Step 29414978 / 437340000 | TPS 5521.43 | ETA 20:31:20
Time 01:27:05 | Step 29471943 / 437340000 | TPS 5696.46 | ETA 19:53:20
Time 01:27:15 | Step 29533262 / 437340000 | TPS 6131.84 | ETA 18:28:26
Time 01:27:25 | Step 29593142 / 437340000 | TPS 5988 | ETA 18:54:54
Time 01:27:35 | Step 29653583 / 437340000 | TPS 6044.04 | ETA 18:44:12
Time 01:27:45 | Step 29709424 / 437340000 | TPS 5583.92 | ETA 20:16:40
Time 01:27:55 | Step 29766223 / 437340000 | TPS 5679.88 | ETA 19:55:57
Time 01:28:05 | Step 29825057 / 437340000 | TPS 5883.39 | ETA 19:14:25
Time 01:28:15 | Step 29885083 / 437340000 | TPS 6002.55 | ETA 18:51:20
Time 01:28:25 | Step 29948653 / 437340000 | TPS 6356.92 | ETA 17:48:06
Time 01:28:35 | Step 30013421 / 437340000 | TPS 6476.74 | ETA 17:28:10
Time 01:28:45 | Step 30071470 / 437340000 | TPS 5804.76 | ETA 19:29:21
Time 01:28:55 | Step 30133842 / 437340000 | TPS 6237.12 | ETA 18:08:07
Time 01:29:05 | Step 30192561 / 437340000 | TPS 5871.75 | ETA 19:15:40
Time 01:29:15 | Step 30251960 / 437340000 | TPS 5939.84 | ETA 19:02:15
Time 01:29:25 | Step 30313713 / 437340000 | TPS 6175.24 | ETA 18:18:32
Time 01:29:35 | Step 30377625 / 437340000 | TPS 6391.12 | ETA 17:41:16
Time 01:29:45 | Step 30439494 / 437340000 | TPS 6186.88 | ETA 18:16:08
Time 01:29:55 | Step 30505841 / 437340000 | TPS 6634.63 | ETA 17:01:59
Time 01:30:05 | Step 30574201 / 437340000 | TPS 6835.82 | ETA 16:31:45
Time 01:30:15 | Step 30631716 / 437340000 | TPS 5751.46 | ETA 19:38:33
Time 01:30:25 | Step 30689341 / 437340000 | TPS 5762.43 | ETA 19:36:09
Time 01:30:35 | Step 30746677 / 437340000 | TPS 5733.58 | ETA 19:41:54
Time 01:30:45 | Step 30803656 / 437340000 | TPS 5697.82 | ETA 19:49:09
Time 01:30:55 | Step 30853983 / 437340000 | TPS 5032.32 | ETA 22:26:15
Time 01:31:05 | Step 30903863 / 437340000 | TPS 4987.93 | ETA 22:38:03
Time 01:31:15 | Step 30960308 / 437340000 | TPS 5644.42 | ETA 19:59:56
Time 01:31:25 | Step 31018784 / 437340000 | TPS 5847.46 | ETA 19:18:06
Time 01:31:35 | Step 31077134 / 437340000 | TPS 5834.98 | ETA 19:20:25
Time 01:31:45 | Step 31136581 / 437340000 | TPS 5944.61 | ETA 18:58:51
Time 01:31:55 | Step 31190775 / 437340000 | TPS 5419.35 | ETA 20:49:04
Time 01:32:05 | Step 31250893 / 437340000 | TPS 6011.75 | ETA 18:45:49
Time 01:32:15 | Step 31309614 / 437340000 | TPS 5872.03 | ETA 19:12:26
Time 01:32:25 | Step 31370032 / 437340000 | TPS 6041.8 | ETA 18:39:53
Time 01:32:35 | Step 31433198 / 437340000 | TPS 6316.53 | ETA 17:51:01
Time 01:32:45 | Step 31494381 / 437340000 | TPS 6118.26 | ETA 18:25:33
Time 01:32:55 | Step 31552723 / 437340000 | TPS 5834.13 | ETA 19:19:14
Time 01:33:05 | Step 31610859 / 437340000 | TPS 5813.54 | ETA 19:23:10
Time 01:33:15 | Step 31668249 / 437340000 | TPS 5738.99 | ETA 19:38:06
Time 01:33:25 | Step 31727799 / 437340000 | TPS 5954.8 | ETA 18:55:15
Time 01:33:35 | Step 31785372 / 437340000 | TPS 5757.26 | ETA 19:34:02
Time 01:33:45 | Step 31843616 / 437340000 | TPS 5824.33 | ETA 19:20:21
Time 01:33:55 | Step 31899659 / 437340000 | TPS 5604.29 | ETA 20:05:44
Time 01:34:05 | Step 31964591 / 437340000 | TPS 6493.15 | ETA 17:20:31
Time 01:34:15 | Step 32027945 / 437340000 | TPS 6335.34 | ETA 17:46:16
Time 01:34:25 | Step 32084061 / 437340000 | TPS 5611.55 | ETA 20:03:38
Time 01:34:35 | Step 32144240 / 437340000 | TPS 6017.84 | ETA 18:42:12
Time 01:34:45 | Step 32212086 / 437340000 | TPS 6784.57 | ETA 16:35:13
Time 01:34:55 | Step 32277283 / 437340000 | TPS 6519.68 | ETA 17:15:29
Time 01:35:05 | Step 32344549 / 437340000 | TPS 6726.55 | ETA 16:43:28
Time 01:35:15 | Step 32412102 / 437340000 | TPS 6755.23 | ETA 16:39:02
Time 01:35:25 | Step 32482128 / 437340000 | TPS 7002.52 | ETA 16:03:36
Time 01:35:35 | Step 32551950 / 437340000 | TPS 6982.18 | ETA 16:06:14
Time 01:35:45 | Step 32616281 / 437340000 | TPS 6433.06 | ETA 17:28:33
Time 01:35:55 | Step 32685001 / 437340000 | TPS 6871.56 | ETA 16:21:28
Time 01:36:05 | Step 32747651 / 437340000 | TPS 6264.91 | ETA 17:56:20
Time 01:36:15 | Step 32806450 / 437340000 | TPS 5879.84 | ETA 19:06:40
Time 01:36:25 | Step 32869836 / 437340000 | TPS 6338.57 | ETA 17:43:30
Time 01:36:35 | Step 32926486 / 437340000 | TPS 5664.79 | ETA 19:49:50
Time 01:36:45 | Step 32984435 / 437340000 | TPS 5794.86 | ETA 19:22:58
Time 01:36:55 | Step 33037968 / 437340000 | TPS 5353.25 | ETA 20:58:44
Time 01:37:05 | Step 33095494 / 437340000 | TPS 5752.54 | ETA 19:31:12
Time 01:37:15 | Step 33151680 / 437340000 | TPS 5618.54 | ETA 19:58:58
Time 01:37:25 | Step 33205390 / 437340000 | TPS 5371 | ETA 20:54:03
Time 01:37:35 | Step 33258155 / 437340000 | TPS 5276.36 | ETA 21:16:23
Time 01:37:45 | Step 33310851 / 437340000 | TPS 5269.54 | ETA 21:17:52
Time 01:37:55 | Step 33367223 / 437340000 | TPS 5637.19 | ETA 19:54:22
Time 01:38:05 | Step 33424340 / 437340000 | TPS 5711.68 | ETA 19:38:37
Time 01:38:15 | Step 33479880 / 437340000 | TPS 5553.79 | ETA 20:11:57
Time 01:38:25 | Step 33532616 / 437340000 | TPS 5273.6 | ETA 21:16:11
Time 01:38:35 | Step 33592525 / 437340000 | TPS 5990.85 | ETA 18:43:13
Time 01:38:45 | Step 33650924 / 437340000 | TPS 5839.89 | ETA 19:12:06
Time 01:38:55 | Step 33706148 / 437340000 | TPS 5522.25 | ETA 20:18:12
Time 01:39:05 | Step 33762549 / 437340000 | TPS 5640.09 | ETA 19:52:35
Time 01:39:15 | Step 33820940 / 437340000 | TPS 5839.07 | ETA 19:11:46
Time 01:39:25 | Step 33879591 / 437340000 | TPS 5865.04 | ETA 19:06:30
Time 01:39:35 | Step 33936897 / 437340000 | TPS 5730.56 | ETA 19:33:15
Time 01:39:45 | Step 33993591 / 437340000 | TPS 5669.36 | ETA 19:45:44
Time 01:39:55 | Step 34050516 / 437340000 | TPS 5692.43 | ETA 19:40:46
Time 01:40:05 | Step 34107089 / 437340000 | TPS 5657.26 | ETA 19:47:57
Time 01:40:15 | Step 34165032 / 437340000 | TPS 5794.23 | ETA 19:19:42
Time 01:40:25 | Step 34226728 / 437340000 | TPS 6169.53 | ETA 18:08:59
Time 01:40:35 | Step 34285285 / 437340000 | TPS 5855.64 | ETA 19:07:11
Time 01:40:45 | Step 34341915 / 437340000 | TPS 5662.94 | ETA 19:46:04
Time 01:40:55 | Step 34401151 / 437340000 | TPS 5923.57 | ETA 18:53:42
Time 01:41:05 | Step 34457242 / 437340000 | TPS 5609.02 | ETA 19:57:07
Time 01:41:15 | Step 34511027 / 437340000 | TPS 5378.47 | ETA 20:48:16
Time 01:41:25 | Step 34569099 / 437340000 | TPS 5807.19 | ETA 19:15:57
Time 01:41:35 | Step 34629337 / 437340000 | TPS 6023.77 | ETA 18:34:13
Time 01:41:45 | Step 34684929 / 437340000 | TPS 5559.16 | ETA 20:07:10
Time 01:41:55 | Step 34739375 / 437340000 | TPS 5444.58 | ETA 20:32:25
Time 01:42:05 | Step 34798501 / 437340000 | TPS 5912.53 | ETA 18:54:42
Time 01:42:15 | Step 34859665 / 437340000 | TPS 6116.33 | ETA 18:16:44
Time 01:42:25 | Step 34917423 / 437340000 | TPS 5775.8 | ETA 19:21:13
Time 01:42:35 | Step 34974870 / 437340000 | TPS 5744.66 | ETA 19:27:21
Time 01:42:45 | Step 35029501 / 437340000 | TPS 5462.91 | ETA 20:27:24
Time 01:42:55 | Step 35090562 / 437340000 | TPS 6106.06 | ETA 18:17:57
Time 01:43:05 | Step 35152960 / 437340000 | TPS 6239.72 | ETA 17:54:15
Time 01:43:15 | Step 35217196 / 437340000 | TPS 6423.43 | ETA 17:23:22
Time 01:43:25 | Step 35279997 / 437340000 | TPS 6280 | ETA 17:47:02
Time 01:43:35 | Step 35345358 / 437340000 | TPS 6536.04 | ETA 17:05:04
Time 01:43:45 | Step 35412194 / 437340000 | TPS 6683.57 | ETA 16:42:16
Time 01:43:55 | Step 35479977 / 437340000 | TPS 6778.27 | ETA 16:28:06
Time 01:44:05 | Step 35544627 / 437340000 | TPS 6464.95 | ETA 17:15:49
Time 01:44:15 | Step 35609403 / 437340000 | TPS 6477.53 | ETA 17:13:39
Time 01:44:25 | Step 35670998 / 437340000 | TPS 6159.48 | ETA 18:06:51
Time 01:44:35 | Step 35735435 / 437340000 | TPS 6443.65 | ETA 17:18:45
Time 01:44:45 | Step 35801392 / 437340000 | TPS 6595.67 | ETA 16:54:39
Time 01:44:55 | Step 35860206 / 437340000 | TPS 5881.32 | ETA 18:57:43
Time 01:45:05 | Step 35919001 / 437340000 | TPS 5879.38 | ETA 18:57:56
Time 01:45:15 | Step 35981376 / 437340000 | TPS 6237.35 | ETA 17:52:27
Time 01:45:25 | Step 36044326 / 437340000 | TPS 6294.96 | ETA 17:42:28
Time 01:45:35 | Step 36104671 / 437340000 | TPS 6034.47 | ETA 18:28:10
Time 01:45:45 | Step 36168485 / 437340000 | TPS 6381.33 | ETA 17:27:46
Time 01:45:55 | Step 36229291 / 437340000 | TPS 6080.6 | ETA 18:19:25
Time 01:46:05 | Step 36289811 / 437340000 | TPS 6051.95 | ETA 18:24:27
Time 01:46:15 | Step 36347218 / 437340000 | TPS 5740.63 | ETA 19:24:11
Time 01:46:25 | Step 36404175 / 437340000 | TPS 5695.69 | ETA 19:33:12
Time 01:46:35 | Step 36458403 / 437340000 | TPS 5422.76 | ETA 20:32:05
Time 01:46:45 | Step 36511501 / 437340000 | TPS 5309.45 | ETA 20:58:13
Time 01:46:55 | Step 36575492 / 437340000 | TPS 6399.01 | ETA 17:23:49
Time 01:47:05 | Step 36629841 / 437340000 | TPS 5434.84 | ETA 20:28:49
Time 01:47:15 | Step 36686521 / 437340000 | TPS 5667.94 | ETA 19:38:07
Time 01:47:25 | Step 36749322 / 437340000 | TPS 6279.87 | ETA 17:43:09
Time 01:47:35 | Step 36800433 / 437340000 | TPS 5110.74 | ETA 21:46:12
Time 01:47:45 | Step 36853660 / 437340000 | TPS 5322.65 | ETA 20:54:01
Time 01:47:55 | Step 36905818 / 437340000 | TPS 5215.77 | ETA 21:19:33
Time 01:48:05 | Step 36967022 / 437340000 | TPS 6120.33 | ETA 18:10:16
Time 01:48:15 | Step 37022727 / 437340000 | TPS 5570.46 | ETA 19:57:44
Time 01:48:25 | Step 37075752 / 437340000 | TPS 5302.44 | ETA 20:58:06
Time 01:48:35 | Step 37133602 / 437340000 | TPS 5784.98 | ETA 19:13:00
Time 01:48:45 | Step 37188067 / 437340000 | TPS 5446.36 | ETA 20:24:31
Time 01:48:55 | Step 37246159 / 437340000 | TPS 5809.13 | ETA 19:07:53
Time 01:49:05 | Step 37304982 / 437340000 | TPS 5882.29 | ETA 18:53:26
Time 01:49:15 | Step 37362683 / 437340000 | TPS 5770.04 | ETA 19:15:19
Time 01:49:25 | Step 37425051 / 437340000 | TPS 6236.74 | ETA 17:48:42
Time 01:49:35 | Step 37489459 / 437340000 | TPS 6440.77 | ETA 17:14:41
Time 01:49:45 | Step 37546924 / 437340000 | TPS 5746.31 | ETA 19:19:33
Time 01:49:55 | Step 37603773 / 437340000 | TPS 5684.85 | ETA 19:31:56
Time 01:50:05 | Step 37660015 / 437340000 | TPS 5624.13 | ETA 19:44:25
Time 01:50:15 | Step 37718033 / 437340000 | TPS 5801.77 | ETA 19:07:59
Time 01:50:25 | Step 37770580 / 437340000 | TPS 5254.66 | ETA 21:07:20
Time 01:50:35 | Step 37821815 / 437340000 | TPS 5123.42 | ETA 21:39:38
Time 01:50:45 | Step 37870977 / 437340000 | TPS 4916.19 | ETA 22:34:15
Time 01:50:55 | Step 37922689 / 437340000 | TPS 5170.88 | ETA 21:27:23
Time 01:51:05 | Step 37973315 / 437340000 | TPS 5062.58 | ETA 21:54:45
Time 01:51:15 | Step 38023366 / 437340000 | TPS 5004.82 | ETA 22:09:46
Time 01:51:25 | Step 38074319 / 437340000 | TPS 5095.21 | ETA 21:46:01
Time 01:51:35 | Step 38127219 / 437340000 | TPS 5289.91 | ETA 20:57:46
Time 01:51:45 | Step 38181331 / 437340000 | TPS 5411.16 | ETA 20:29:25
Time 01:51:55 | Step 38233278 / 437340000 | TPS 5194.64 | ETA 21:20:30
Time 01:52:05 | Step 38288440 / 437340000 | TPS 5516.17 | ETA 20:05:42
Time 01:52:15 | Step 38344968 / 437340000 | TPS 5652.76 | ETA 19:36:24
Time 01:52:25 | Step 38404182 / 437340000 | TPS 5921.33 | ETA 18:42:52
Time 01:52:35 | Step 38468617 / 437340000 | TPS 6443.26 | ETA 17:11:45
Time 01:52:45 | Step 38524953 / 437340000 | TPS 5633.53 | ETA 19:39:53
Time 01:52:55 | Step 38581561 / 437340000 | TPS 5660.58 | ETA 19:34:04
Time 01:53:05 | Step 38632704 / 437340000 | TPS 5114.28 | ETA 21:39:19
Time 01:53:15 | Step 38689202 / 437340000 | TPS 5649.69 | ETA 19:36:01
Time 01:53:25 | Step 38750329 / 437340000 | TPS 6112.62 | ETA 18:06:47
Time 01:53:35 | Step 38810592 / 437340000 | TPS 6026.26 | ETA 18:22:12
Time 01:53:45 | Step 38879035 / 437340000 | TPS 6844.11 | ETA 16:10:19
Time 01:53:55 | Step 38946893 / 437340000 | TPS 6785.61 | ETA 16:18:31
Time 01:54:05 | Step 39013501 / 437340000 | TPS 6660.7 | ETA 16:36:42
Time 01:54:15 | Step 39075534 / 437340000 | TPS 6203.27 | ETA 17:50:02
Time 01:54:25 | Step 39136836 / 437340000 | TPS 6130.18 | ETA 18:02:37
Time 01:54:35 | Step 39203701 / 437340000 | TPS 6686.29 | ETA 16:32:25
Time 01:54:45 | Step 39269464 / 437340000 | TPS 6576.27 | ETA 16:48:51
Time 01:54:55 | Step 39323304 / 437340000 | TPS 5383.77 | ETA 20:32:08
Time 01:55:05 | Step 39375579 / 437340000 | TPS 5227.45 | ETA 21:08:49
Time 01:55:15 | Step 39433204 / 437340000 | TPS 5762.5 | ETA 19:10:51
Time 01:55:25 | Step 39486163 / 437340000 | TPS 5295.83 | ETA 20:52:05
Time 01:55:35 | Step 39540528 / 437340000 | TPS 5436.49 | ETA 20:19:32
Time 01:55:45 | Step 39596857 / 437340000 | TPS 5632.88 | ETA 19:36:51
Time 01:55:55 | Step 39655077 / 437340000 | TPS 5821.98 | ETA 18:58:27
Time 01:56:05 | Step 39709607 / 437340000 | TPS 5452.99 | ETA 20:15:19
Time 01:56:15 | Step 39769565 / 437340000 | TPS 5995.8 | ETA 18:25:08
Time 01:56:25 | Step 39828667 / 437340000 | TPS 5910.17 | ETA 18:40:58
Time 01:56:35 | Step 39887291 / 437340000 | TPS 5862.32 | ETA 18:49:57
Time 01:56:45 | Step 39945640 / 437340000 | TPS 5834.88 | ETA 18:55:06
Time 01:56:55 | Step 40003543 / 437340000 | TPS 5790.29 | ETA 19:03:41
Time 01:57:05 | Step 40066075 / 437340000 | TPS 6253.18 | ETA 17:38:51
Time 01:57:15 | Step 40126502 / 437340000 | TPS 6042.37 | ETA 18:15:38
Time 01:57:25 | Step 40189701 / 437340000 | TPS 6319.83 | ETA 17:27:21
Time 01:57:35 | Step 40249446 / 437340000 | TPS 5974.47 | ETA 18:27:44
Time 01:57:45 | Step 40308173 / 437340000 | TPS 5872.66 | ETA 18:46:46
Time 01:57:55 | Step 40368275 / 437340000 | TPS 6010.09 | ETA 18:20:50
Time 01:58:05 | Step 40422779 / 437340000 | TPS 5450.38 | ETA 20:13:43
Time 01:58:15 | Step 40481695 / 437340000 | TPS 5891.59 | ETA 18:42:40
Time 01:58:25 | Step 40543176 / 437340000 | TPS 6148.1 | ETA 17:55:39
Time 01:58:35 | Step 40606234 / 437340000 | TPS 6305.73 | ETA 17:28:36
Time 01:58:45 | Step 40668893 / 437340000 | TPS 6265.86 | ETA 17:35:06
Time 01:58:55 | Step 40729835 / 437340000 | TPS 6094.16 | ETA 18:04:40
Time 01:59:05 | Step 40788816 / 437340000 | TPS 5898.03 | ETA 18:40:34
Time 01:59:15 | Step 40845472 / 437340000 | TPS 5665.54 | ETA 19:26:23
Time 01:59:25 | Step 40904278 / 437340000 | TPS 5880.57 | ETA 18:43:34
Time 01:59:35 | Step 40961132 / 437340000 | TPS 5685.27 | ETA 19:22:00
Time 01:59:45 | Step 41020090 / 437340000 | TPS 5895.8 | ETA 18:40:20
Time 01:59:55 | Step 41079213 / 437340000 | TPS 5912.26 | ETA 18:37:03
Time 02:00:05 | Step 41139395 / 437340000 | TPS 6018.08 | ETA 18:17:15
Time 02:00:15 | Step 41203361 / 437340000 | TPS 6396.56 | ETA 17:12:09
Time 02:00:25 | Step 41269090 / 437340000 | TPS 6572.89 | ETA 16:44:18
Time 02:00:35 | Step 41329976 / 437340000 | TPS 6088.57 | ETA 18:04:01
Time 02:00:45 | Step 41390812 / 437340000 | TPS 6083.6 | ETA 18:04:44
Time 02:00:55 | Step 41452179 / 437340000 | TPS 6136.65 | ETA 17:55:12
Time 02:01:05 | Step 41514178 / 437340000 | TPS 6199.9 | ETA 17:44:03
Time 02:01:15 | Step 41574241 / 437340000 | TPS 6006.29 | ETA 18:18:11
Time 02:01:25 | Step 41633734 / 437340000 | TPS 5949.26 | ETA 18:28:33
Time 02:01:35 | Step 41692211 / 437340000 | TPS 5847.66 | ETA 18:47:39
Time 02:01:45 | Step 41749842 / 437340000 | TPS 5763.05 | ETA 19:04:02
Time 02:01:55 | Step 41805133 / 437340000 | TPS 5529.08 | ETA 19:52:17
Time 02:02:05 | Step 41867782 / 437340000 | TPS 6264.84 | ETA 17:32:05
Time 02:02:15 | Step 41929912 / 437340000 | TPS 6212.96 | ETA 17:40:42
Time 02:02:25 | Step 41994663 / 437340000 | TPS 6475.04 | ETA 16:57:36
Time 02:02:35 | Step 42054798 / 437340000 | TPS 6013.49 | ETA 18:15:33
Time 02:02:45 | Step 42114968 / 437340000 | TPS 6016.94 | ETA 18:14:45
Time 02:02:55 | Step 42173416 / 437340000 | TPS 5844.73 | ETA 18:46:50
Time 02:03:05 | Step 42230058 / 437340000 | TPS 5664.02 | ETA 19:22:37
Time 02:03:16 | Step 42283519 / 437340000 | TPS 5346.02 | ETA 20:31:37
Time 02:03:26 | Step 42343485 / 437340000 | TPS 5996.58 | ETA 18:17:50
Time 02:03:36 | Step 42405601 / 437340000 | TPS 6211.29 | ETA 17:39:43
Time 02:03:46 | Step 42463545 / 437340000 | TPS 5794.33 | ETA 18:55:48
Time 02:03:56 | Step 42523379 / 437340000 | TPS 5983.39 | ETA 18:19:45
Time 02:04:06 | Step 42582477 / 437340000 | TPS 5909.76 | ETA 18:33:17
Time 02:04:16 | Step 42635949 / 437340000 | TPS 5347.14 | ETA 20:30:15
Time 02:04:26 | Step 42689565 / 437340000 | TPS 5361.32 | ETA 20:26:50
Time 02:04:36 | Step 42743135 / 437340000 | TPS 5357 | ETA 20:27:40
Time 02:04:46 | Step 42797372 / 437340000 | TPS 5423.69 | ETA 20:12:24
Time 02:04:56 | Step 42853258 / 437340000 | TPS 5588.56 | ETA 19:36:28
Time 02:05:06 | Step 42906362 / 437340000 | TPS 5310.33 | ETA 20:37:56
Time 02:05:16 | Step 42961564 / 437340000 | TPS 5519.93 | ETA 19:50:46
Time 02:05:26 | Step 43022942 / 437340000 | TPS 6137.79 | ETA 17:50:44
Time 02:05:36 | Step 43080476 / 437340000 | TPS 5753.36 | ETA 19:02:06
Time 02:05:46 | Step 43138570 / 437340000 | TPS 5809.34 | ETA 18:50:56
Time 02:05:56 | Step 43196325 / 437340000 | TPS 5775.43 | ETA 18:57:24
Time 02:06:06 | Step 43251019 / 437340000 | TPS 5469.33 | ETA 20:00:54
Time 02:06:16 | Step 43303438 / 437340000 | TPS 5241.83 | ETA 20:52:51
Time 02:06:26 | Step 43356369 / 437340000 | TPS 5293.07 | ETA 20:40:33
Time 02:06:36 | Step 43410123 / 437340000 | TPS 5375.34 | ETA 20:21:24
Time 02:06:46 | Step 43463216 / 437340000 | TPS 5309.25 | ETA 20:36:26
Time 02:06:56 | Step 43518379 / 437340000 | TPS 5516.29 | ETA 19:49:52
Time 02:07:06 | Step 43575029 / 437340000 | TPS 5664.98 | ETA 19:18:28
Time 02:07:16 | Step 43628163 / 437340000 | TPS 5313.12 | ETA 20:35:01
Time 02:07:26 | Step 43681361 / 437340000 | TPS 5319.78 | ETA 20:33:19
Time 02:07:36 | Step 43735718 / 437340000 | TPS 5435.64 | ETA 20:06:51
Time 02:07:46 | Step 43794870 / 437340000 | TPS 5915.12 | ETA 18:28:52
Time 02:07:56 | Step 43855456 / 437340000 | TPS 6058.57 | ETA 18:02:26
Time 02:08:06 | Step 43919734 / 437340000 | TPS 6427.66 | ETA 17:00:07
Time 02:08:16 | Step 43979722 / 437340000 | TPS 5998.79 | ETA 18:12:53
Time 02:08:26 | Step 44040988 / 437340000 | TPS 6126.55 | ETA 17:49:55
Time 02:08:36 | Step 44098794 / 437340000 | TPS 5780.59 | ETA 18:53:47
Time 02:08:46 | Step 44153571 / 437340000 | TPS 5477.47 | ETA 19:56:22
Time 02:08:56 | Step 44209472 / 437340000 | TPS 5590.03 | ETA 19:32:07
Time 02:09:06 | Step 44270635 / 437340000 | TPS 6116.23 | ETA 17:51:06
Time 02:09:16 | Step 44335116 / 437340000 | TPS 6448.03 | ETA 16:55:49
Time 02:09:26 | Step 44399624 / 437340000 | TPS 6450.75 | ETA 16:55:13
Time 02:09:36 | Step 44462674 / 437340000 | TPS 6304.92 | ETA 17:18:32
Time 02:09:46 | Step 44527081 / 437340000 | TPS 6440.66 | ETA 16:56:29
Time 02:09:56 | Step 44591064 / 437340000 | TPS 6398.28 | ETA 17:03:03
Time 02:10:06 | Step 44650845 / 437340000 | TPS 5978.04 | ETA 18:14:48
Time 02:10:16 | Step 44713705 / 437340000 | TPS 6285.96 | ETA 17:21:00
Time 02:10:26 | Step 44775651 / 437340000 | TPS 6194.54 | ETA 17:36:12
Time 02:10:36 | Step 44841654 / 437340000 | TPS 6600.27 | ETA 16:31:06
Time 02:10:46 | Step 44909913 / 437340000 | TPS 6825.84 | ETA 15:58:11
Time 02:10:56 | Step 44971244 / 437340000 | TPS 6133.02 | ETA 17:46:16
Time 02:11:06 | Step 45026964 / 437340000 | TPS 5571.91 | ETA 19:33:29
Time 02:11:16 | Step 45086573 / 437340000 | TPS 5960.71 | ETA 18:16:46
Time 02:11:26 | Step 45145741 / 437340000 | TPS 5916.73 | ETA 18:24:45
Time 02:11:36 | Step 45203477 / 437340000 | TPS 5773.57 | ETA 18:51:59
Time 02:11:46 | Step 45262025 / 437340000 | TPS 5854.72 | ETA 18:36:07
Time 02:11:56 | Step 45316516 / 437340000 | TPS 5449.06 | ETA 19:59:03
Time 02:12:06 | Step 45369156 / 437340000 | TPS 5263.98 | ETA 20:41:02
Time 02:12:16 | Step 45424052 / 437340000 | TPS 5489.54 | ETA 19:49:53
Time 02:12:26 | Step 45482968 / 437340000 | TPS 5891.58 | ETA 18:28:31
Time 02:12:36 | Step 45540247 / 437340000 | TPS 5727.89 | ETA 19:00:02
Time 02:12:46 | Step 45593279 / 437340000 | TPS 5303.14 | ETA 20:31:10
Time 02:12:56 | Step 45649210 / 437340000 | TPS 5593.05 | ETA 19:27:11
Time 02:13:06 | Step 45706456 / 437340000 | TPS 5724.53 | ETA 19:00:13
Time 02:13:16 | Step 45765428 / 437340000 | TPS 5897.09 | ETA 18:26:41
Time 02:13:26 | Step 45820561 / 437340000 | TPS 5513.22 | ETA 19:43:34
Time 02:13:36 | Step 45876125 / 437340000 | TPS 5556.34 | ETA 19:34:13
Time 02:13:46 | Step 45932529 / 437340000 | TPS 5640.34 | ETA 19:16:34
Time 02:13:56 | Step 45987191 / 437340000 | TPS 5466.19 | ETA 19:53:15
Time 02:14:06 | Step 46044214 / 437340000 | TPS 5702.05 | ETA 19:03:43
Time 02:14:16 | Step 46100454 / 437340000 | TPS 5623.78 | ETA 19:19:28
Time 02:14:26 | Step 46154762 / 437340000 | TPS 5430.73 | ETA 20:00:31
Time 02:14:36 | Step 46209747 / 437340000 | TPS 5498.47 | ETA 19:45:34
Time 02:14:46 | Step 46265454 / 437340000 | TPS 5570.69 | ETA 19:30:02
Time 02:14:56 | Step 46323852 / 437340000 | TPS 5839.64 | ETA 18:35:58
Time 02:15:06 | Step 46388022 / 437340000 | TPS 6416.96 | ETA 16:55:24
Time 02:15:16 | Step 46449449 / 437340000 | TPS 6142.64 | ETA 17:40:35
Time 02:15:26 | Step 46500901 / 437340000 | TPS 5145.13 | ETA 21:06:02
Time 02:15:36 | Step 46553235 / 437340000 | TPS 5233.38 | ETA 20:44:32
Time 02:15:46 | Step 46604160 / 437340000 | TPS 5092.2 | ETA 21:18:52
Time 02:15:56 | Step 46660197 / 437340000 | TPS 5603.66 | ETA 19:21:58
Time 02:16:06 | Step 46717747 / 437340000 | TPS 5754.97 | ETA 18:51:15
Time 02:16:16 | Step 46770728 / 437340000 | TPS 5297.88 | ETA 20:28:41
Time 02:16:26 | Step 46822605 / 437340000 | TPS 5187.65 | ETA 20:54:38
Time 02:16:36 | Step 46870071 / 437340000 | TPS 4746.54 | ETA 22:51:04
Time 02:16:46 | Step 46920836 / 437340000 | TPS 5076.46 | ETA 21:21:47
Time 02:16:56 | Step 46973091 / 437340000 | TPS 5225.43 | ETA 20:45:05
Time 02:17:06 | Step 47023118 / 437340000 | TPS 5002.64 | ETA 21:40:22
Time 02:17:16 | Step 47072885 / 437340000 | TPS 4976.63 | ETA 21:46:59
Time 02:17:26 | Step 47123767 / 437340000 | TPS 5088.19 | ETA 21:18:10
Time 02:17:36 | Step 47175601 / 437340000 | TPS 5183.29 | ETA 20:54:33
Time 02:17:46 | Step 47228761 / 437340000 | TPS 5315.94 | ETA 20:23:05
Time 02:17:56 | Step 47283957 / 437340000 | TPS 5519.55 | ETA 19:37:48
Time 02:18:06 | Step 47337723 / 437340000 | TPS 5376.22 | ETA 20:09:02
Time 02:18:16 | Step 47388298 / 437340000 | TPS 5057.47 | ETA 21:25:04
Time 02:18:26 | Step 47438389 / 437340000 | TPS 5009.07 | ETA 21:37:19
Time 02:18:36 | Step 47487835 / 437340000 | TPS 4944.55 | ETA 21:54:04
Time 02:18:46 | Step 47539279 / 437340000 | TPS 5144.36 | ETA 21:02:52
Time 02:18:56 | Step 47588938 / 437340000 | TPS 4965.83 | ETA 21:48:06
Time 02:19:06 | Step 47638361 / 437340000 | TPS 4942.27 | ETA 21:54:10
Time 02:19:16 | Step 47691889 / 437340000 | TPS 5352.72 | ETA 20:13:14
Time 02:19:26 | Step 47745633 / 437340000 | TPS 5374.18 | ETA 20:08:13
Time 02:19:36 | Step 47796909 / 437340000 | TPS 5127.54 | ETA 21:06:10
Time 02:19:46 | Step 47848426 / 437340000 | TPS 5151.34 | ETA 21:00:09
Time 02:19:56 | Step 47897309 / 437340000 | TPS 4888.26 | ETA 22:07:48
Time 02:20:06 | Step 47950381 / 437340000 | TPS 5307.18 | ETA 20:22:50
Time 02:20:16 | Step 48003761 / 437340000 | TPS 5337.88 | ETA 20:15:38
Time 02:20:26 | Step 48054687 / 437340000 | TPS 5092.58 | ETA 21:14:01
Time 02:20:36 | Step 48108335 / 437340000 | TPS 5364.78 | ETA 20:09:13
Time 02:20:46 | Step 48158574 / 437340000 | TPS 5023.87 | ETA 21:31:06
Time 02:20:56 | Step 48207063 / 437340000 | TPS 4848.85 | ETA 22:17:32
Time 02:21:06 | Step 48257210 / 437340000 | TPS 5014.67 | ETA 21:33:08
Time 02:21:16 | Step 48306549 / 437340000 | TPS 4933.85 | ETA 21:54:09
Time 02:21:26 | Step 48358277 / 437340000 | TPS 5172.78 | ETA 20:53:17
Time 02:21:36 | Step 48405602 / 437340000 | TPS 4732.19 | ETA 22:49:49
Time 02:21:46 | Step 48453444 / 437340000 | TPS 4784.14 | ETA 22:34:46
Time 02:21:56 | Step 48500209 / 437340000 | TPS 4676.42 | ETA 23:05:48
Time 02:22:06 | Step 48550094 / 437340000 | TPS 4988.47 | ETA 21:38:57
Time 02:22:16 | Step 48597645 / 437340000 | TPS 4755.03 | ETA 22:42:33
Time 02:22:26 | Step 48648823 / 437340000 | TPS 5117.71 | ETA 21:05:50
Time 02:22:36 | Step 48699901 / 437340000 | TPS 5107.69 | ETA 21:08:09
Time 02:22:46 | Step 48750502 / 437340000 | TPS 5060.08 | ETA 21:19:55
Time 02:22:56 | Step 48804036 / 437340000 | TPS 5353.37 | ETA 20:09:37
Time 02:23:06 | Step 48858238 / 437340000 | TPS 5419.94 | ETA 19:54:36
Time 02:23:16 | Step 48912035 / 437340000 | TPS 5379.46 | ETA 20:03:25
Time 02:23:26 | Step 48967649 / 437340000 | TPS 5561.34 | ETA 19:23:54
Time 02:23:36 | Step 49025250 / 437340000 | TPS 5760.1 | ETA 18:43:34
Time 02:23:46 | Step 49084997 / 437340000 | TPS 5974.64 | ETA 18:03:03
Time 02:23:56 | Step 49143197 / 437340000 | TPS 5819.99 | ETA 18:31:40
Time 02:24:06 | Step 49198191 / 437340000 | TPS 5499.39 | ETA 19:36:19
Time 02:24:16 | Step 49254392 / 437340000 | TPS 5620.08 | ETA 19:10:53
Time 02:24:26 | Step 49311534 / 437340000 | TPS 5714.19 | ETA 18:51:46
Time 02:24:36 | Step 49365799 / 437340000 | TPS 5426.43 | ETA 19:51:37
Time 02:24:46 | Step 49414469 / 437340000 | TPS 4866.97 | ETA 22:08:25
Time 02:24:56 | Step 49464629 / 437340000 | TPS 5015.94 | ETA 21:28:48
Time 02:25:06 | Step 49520476 / 437340000 | TPS 5584.7 | ETA 19:17:23
Time 02:25:16 | Step 49571642 / 437340000 | TPS 5116.58 | ETA 21:03:06
Time 02:25:26 | Step 49625218 / 437340000 | TPS 5357.58 | ETA 20:06:07
Time 02:25:36 | Step 49680630 / 437340000 | TPS 5540.88 | ETA 19:26:03
Time 02:25:46 | Step 49739111 / 437340000 | TPS 5848.04 | ETA 18:24:38
Time 02:25:56 | Step 49796809 / 437340000 | TPS 5769.69 | ETA 18:39:28
Time 02:26:06 | Step 49851602 / 437340000 | TPS 5479.06 | ETA 19:38:41
Time 02:26:16 | Step 49906331 / 437340000 | TPS 5472.86 | ETA 19:39:51
Time 02:26:26 | Step 49963368 / 437340000 | TPS 5703.64 | ETA 18:51:57
Time 02:26:36 | Step 50019780 / 437340000 | TPS 5640.87 | ETA 19:04:23
Time 02:26:46 | Step 50076889 / 437340000 | TPS 5710.74 | ETA 18:50:13
Time 02:26:56 | Step 50133299 / 437340000 | TPS 5640.95 | ETA 19:04:02
Time 02:27:06 | Step 50192126 / 437340000 | TPS 5882.68 | ETA 18:16:51
Time 02:27:16 | Step 50251850 / 437340000 | TPS 5972.31 | ETA 18:00:13
Time 02:27:26 | Step 50308802 / 437340000 | TPS 5694.72 | ETA 18:52:43
Time 02:27:36 | Step 50360703 / 437340000 | TPS 5190.05 | ETA 20:42:41
Time 02:27:46 | Step 50418158 / 437340000 | TPS 5745.46 | ETA 18:42:23
Time 02:27:56 | Step 50478190 / 437340000 | TPS 6002.92 | ETA 17:54:05
Time 02:28:06 | Step 50537656 / 437340000 | TPS 5946.59 | ETA 18:04:06
Time 02:28:16 | Step 50594316 / 437340000 | TPS 5665.89 | ETA 18:57:38
Time 02:28:26 | Step 50648884 / 437340000 | TPS 5456.79 | ETA 19:41:04
Time 02:28:36 | Step 50705147 / 437340000 | TPS 5626.29 | ETA 19:05:19
Time 02:28:46 | Step 50756321 / 437340000 | TPS 5117.36 | ETA 20:59:03
Time 02:28:56 | Step 50811167 / 437340000 | TPS 5484.55 | ETA 19:34:35
Time 02:29:06 | Step 50868053 / 437340000 | TPS 5688.53 | ETA 18:52:18
Time 02:29:16 | Step 50921242 / 437340000 | TPS 5318.87 | ETA 20:10:50
Time 02:29:26 | Step 50978621 / 437340000 | TPS 5737.86 | ETA 18:42:15
Time 02:29:36 | Step 51037701 / 437340000 | TPS 5907.96 | ETA 18:09:46
Time 02:29:46 | Step 51099842 / 437340000 | TPS 6213.97 | ETA 17:15:56
Time 02:29:56 | Step 51154364 / 437340000 | TPS 5452.16 | ETA 19:40:31
Time 02:30:06 | Step 51209345 / 437340000 | TPS 5498.05 | ETA 19:30:30
Time 02:30:16 | Step 51270075 / 437340000 | TPS 6072.68 | ETA 17:39:34
Time 02:30:26 | Step 51326213 / 437340000 | TPS 5613.73 | ETA 19:06:02
Time 02:30:36 | Step 51384111 / 437340000 | TPS 5789.77 | ETA 18:31:01
Time 02:30:46 | Step 51444329 / 437340000 | TPS 6021.74 | ETA 17:48:03
Time 02:30:56 | Step 51504393 / 437340000 | TPS 6006.33 | ETA 17:50:38
Time 02:31:06 | Step 51556771 / 437340000 | TPS 5237.73 | ETA 20:27:34
Time 02:31:16 | Step 51604585 / 437340000 | TPS 4781.33 | ETA 22:24:35
Time 02:31:26 | Step 51657114 / 437340000 | TPS 5252.82 | ETA 20:23:43
Time 02:31:36 | Step 51714757 / 437340000 | TPS 5764.29 | ETA 18:34:59
Time 02:31:46 | Step 51772643 / 437340000 | TPS 5788.59 | ETA 18:30:08
Time 02:31:56 | Step 51829659 / 437340000 | TPS 5701.52 | ETA 18:46:55
Time 02:32:06 | Step 51887045 / 437340000 | TPS 5738.54 | ETA 18:39:29
Time 02:32:16 | Step 51942031 / 437340000 | TPS 5498.56 | ETA 19:28:10
Time 02:32:26 | Step 51999174 / 437340000 | TPS 5714.26 | ETA 18:43:54
Time 02:32:36 | Step 52058655 / 437340000 | TPS 5948.07 | ETA 17:59:34
Time 02:32:46 | Step 52118019 / 437340000 | TPS 5936.33 | ETA 18:01:32
Time 02:32:56 | Step 52181235 / 437340000 | TPS 6321.53 | ETA 16:55:28
Time 02:33:06 | Step 52241982 / 437340000 | TPS 6074.68 | ETA 17:36:33
Time 02:33:16 | Step 52301329 / 437340000 | TPS 5934.66 | ETA 18:01:19
Time 02:33:26 | Step 52361282 / 437340000 | TPS 5995.22 | ETA 17:50:14
Time 02:33:36 | Step 52419361 / 437340000 | TPS 5807.85 | ETA 18:24:35
Time 02:33:46 | Step 52484907 / 437340000 | TPS 6554.55 | ETA 16:18:35
Time 02:33:56 | Step 52544004 / 437340000 | TPS 5909.64 | ETA 18:05:13
Time 02:34:06 | Step 52599210 / 437340000 | TPS 5520.58 | ETA 19:21:32
Time 02:34:16 | Step 52656661 / 437340000 | TPS 5744.72 | ETA 18:36:02
Time 02:34:26 | Step 52712198 / 437340000 | TPS 5553.7 | ETA 19:14:16
Time 02:34:36 | Step 52766332 / 437340000 | TPS 5413.35 | ETA 19:44:01
Time 02:34:46 | Step 52826721 / 437340000 | TPS 6038.84 | ETA 17:41:13
Time 02:34:56 | Step 52880326 / 437340000 | TPS 5360.47 | ETA 19:55:21
Time 02:35:06 | Step 52934040 / 437340000 | TPS 5371.36 | ETA 19:52:45
Time 02:35:16 | Step 52988559 / 437340000 | TPS 5451.86 | ETA 19:34:59
Time 02:35:26 | Step 53038569 / 437340000 | TPS 5000.97 | ETA 21:20:45
Time 02:35:36 | Step 53093442 / 437340000 | TPS 5487.26 | ETA 19:27:05
Time 02:35:46 | Step 53149835 / 437340000 | TPS 5639.3 | ETA 18:55:27
Time 02:35:56 | Step 53204323 / 437340000 | TPS 5448.73 | ETA 19:35:00
Time 02:36:06 | Step 53264528 / 437340000 | TPS 6020.43 | ETA 17:43:15
Time 02:36:16 | Step 53324251 / 437340000 | TPS 5972.24 | ETA 17:51:40
Time 02:36:26 | Step 53385968 / 437340000 | TPS 6171.68 | ETA 17:16:52
Time 02:36:36 | Step 53445691 / 437340000 | TPS 5972.25 | ETA 17:51:19
Time 02:36:46 | Step 53504877 / 437340000 | TPS 5918.56 | ETA 18:00:52
Time 02:36:56 | Step 53567404 / 437340000 | TPS 6252.65 | ETA 17:02:57
Time 02:37:06 | Step 53626408 / 437340000 | TPS 5900.34 | ETA 18:03:52
Time 02:37:16 | Step 53682745 / 437340000 | TPS 5633.52 | ETA 18:55:02
Time 02:37:26 | Step 53740063 / 437340000 | TPS 5731.74 | ETA 18:35:25
Time 02:37:36 | Step 53799426 / 437340000 | TPS 5936.11 | ETA 17:56:51
Time 02:37:46 | Step 53858243 / 437340000 | TPS 5881.69 | ETA 18:06:39
Time 02:37:56 | Step 53923355 / 437340000 | TPS 6511.16 | ETA 16:21:26
Time 02:38:06 | Step 53990402 / 437340000 | TPS 6704.51 | ETA 15:52:57
Time 02:38:16 | Step 54057058 / 437340000 | TPS 6665.56 | ETA 15:58:22
Time 02:38:26 | Step 54123452 / 437340000 | TPS 6639.39 | ETA 16:01:58
Time 02:38:36 | Step 54186342 / 437340000 | TPS 6288.96 | ETA 16:55:24
Time 02:38:46 | Step 54252416 / 437340000 | TPS 6607.31 | ETA 16:06:19
Time 02:38:56 | Step 54311957 / 437340000 | TPS 5954.08 | ETA 17:52:10
Time 02:39:06 | Step 54378753 / 437340000 | TPS 6679.55 | ETA 15:55:33
Time 02:39:16 | Step 54440260 / 437340000 | TPS 6150.5 | ETA 17:17:35
Time 02:39:26 | Step 54499624 / 437340000 | TPS 5936.24 | ETA 17:54:52
Time 02:39:36 | Step 54556684 / 437340000 | TPS 5705.95 | ETA 18:38:04
Time 02:39:46 | Step 54613974 / 437340000 | TPS 5728.93 | ETA 18:33:25
Time 02:39:56 | Step 54671811 / 437340000 | TPS 5783.64 | ETA 18:22:43
Time 02:40:06 | Step 54732120 / 437340000 | TPS 6030.88 | ETA 17:37:21
Time 02:40:16 | Step 54792858 / 437340000 | TPS 6073.73 | ETA 17:29:43
Time 02:40:26 | Step 54850910 / 437340000 | TPS 5805.19 | ETA 18:18:07
Time 02:40:36 | Step 54906915 / 437340000 | TPS 5600.49 | ETA 18:58:05
Time 02:40:46 | Step 54965806 / 437340000 | TPS 5889.05 | ETA 18:02:09
Time 02:40:56 | Step 55023906 / 437340000 | TPS 5809.96 | ETA 18:16:43
Time 02:41:06 | Step 55088875 / 437340000 | TPS 6496.86 | ETA 16:20:36
Time 02:41:16 | Step 55145092 / 437340000 | TPS 5621.7 | ETA 18:53:05
Time 02:41:26 | Step 55199200 / 437340000 | TPS 5410.8 | ETA 19:37:05
Time 02:41:36 | Step 55254528 / 437340000 | TPS 5532.77 | ETA 19:10:58
Time 02:41:46 | Step 55318392 / 437340000 | TPS 6386.39 | ETA 16:36:58
Time 02:41:56 | Step 55380871 / 437340000 | TPS 6247.7 | ETA 16:58:56
Time 02:42:06 | Step 55443869 / 437340000 | TPS 6299.72 | ETA 16:50:21
Time 02:42:16 | Step 55505499 / 437340000 | TPS 6162.98 | ETA 17:12:36
Time 02:42:26 | Step 55566492 / 437340000 | TPS 6099.29 | ETA 17:23:13
Time 02:42:36 | Step 55629590 / 437340000 | TPS 6309.75 | ETA 16:48:15
Time 02:42:46 | Step 55692177 / 437340000 | TPS 6258.61 | ETA 16:56:19
Time 02:42:56 | Step 55748979 / 437340000 | TPS 5680.18 | ETA 18:39:39
Time 02:43:06 | Step 55798300 / 437340000 | TPS 4932.05 | ETA 21:29:19
Time 02:43:16 | Step 55854928 / 437340000 | TPS 5662.75 | ETA 18:42:47
Time 02:43:26 | Step 55912809 / 437340000 | TPS 5788.07 | ETA 18:18:18
Time 02:43:36 | Step 55973062 / 437340000 | TPS 6025.11 | ETA 17:34:56
Time 02:43:46 | Step 56031909 / 437340000 | TPS 5884.64 | ETA 17:59:57
Time 02:43:56 | Step 56088818 / 437340000 | TPS 5690.82 | ETA 18:36:34
Time 02:44:06 | Step 56147275 / 437340000 | TPS 5845.65 | ETA 18:06:49
Time 02:44:16 | Step 56206320 / 437340000 | TPS 5904.46 | ETA 17:55:50
Time 02:44:26 | Step 56266686 / 437340000 | TPS 6036.58 | ETA 17:32:07
Time 02:44:36 | Step 56323610 / 437340000 | TPS 5692.35 | ETA 18:35:34
Time 02:44:46 | Step 56381997 / 437340000 | TPS 5838.68 | ETA 18:07:27
Time 02:44:56 | Step 56444468 / 437340000 | TPS 6247.04 | ETA 16:56:12
Time 02:45:06 | Step 56503241 / 437340000 | TPS 5877.23 | ETA 17:59:58
Time 02:45:16 | Step 56565094 / 437340000 | TPS 6185.29 | ETA 17:06:01
Time 02:45:26 | Step 56624991 / 437340000 | TPS 5989.69 | ETA 17:39:21
Time 02:45:36 | Step 56686481 / 437340000 | TPS 6148.98 | ETA 17:11:45
Time 02:45:46 | Step 56744064 / 437340000 | TPS 5758.24 | ETA 18:21:35
Time 02:45:56 | Step 56800502 / 437340000 | TPS 5643.75 | ETA 18:43:46
Time 02:46:06 | Step 56859080 / 437340000 | TPS 5857.75 | ETA 18:02:33
Time 02:46:16 | Step 56917187 / 437340000 | TPS 5810.67 | ETA 18:11:09
Time 02:46:26 | Step 56978217 / 437340000 | TPS 6102.93 | ETA 17:18:44
Time 02:46:36 | Step 57034071 / 437340000 | TPS 5585.33 | ETA 18:54:50
Time 02:46:46 | Step 57093043 / 437340000 | TPS 5897.13 | ETA 17:54:39
Time 02:46:56 | Step 57151145 / 437340000 | TPS 5810.15 | ETA 18:10:35
Time 02:47:06 | Step 57210715 / 437340000 | TPS 5956.99 | ETA 17:43:32
Time 02:47:16 | Step 57273275 / 437340000 | TPS 6255.93 | ETA 16:52:32
Time 02:47:26 | Step 57333870 / 437340000 | TPS 6059.28 | ETA 17:25:14
Time 02:47:36 | Step 57390362 / 437340000 | TPS 5649.19 | ETA 18:40:57
Time 02:47:46 | Step 57448338 / 437340000 | TPS 5797.51 | ETA 18:12:06
Time 02:47:56 | Step 57503544 / 437340000 | TPS 5520.58 | ETA 19:06:43
Time 02:48:06 | Step 57560185 / 437340000 | TPS 5664.03 | ETA 18:37:31
Time 02:48:16 | Step 57620727 / 437340000 | TPS 6054.18 | ETA 17:25:20
Time 02:48:26 | Step 57678892 / 437340000 | TPS 5816.44 | ETA 18:07:53
Time 02:48:36 | Step 57730750 / 437340000 | TPS 5185.71 | ETA 20:20:03
Time 02:48:46 | Step 57784251 / 437340000 | TPS 5350.06 | ETA 19:42:24
Time 02:48:56 | Step 57839946 / 437340000 | TPS 5569.5 | ETA 18:55:39
Time 02:49:06 | Step 57897300 / 437340000 | TPS 5735.39 | ETA 18:22:38
Time 02:49:16 | Step 57955270 / 437340000 | TPS 5796.93 | ETA 18:10:45
Time 02:49:26 | Step 58007513 / 437340000 | TPS 5224.22 | ETA 20:10:10
Time 02:49:36 | Step 58058446 / 437340000 | TPS 5093.23 | ETA 20:41:07
Time 02:49:46 | Step 58108249 / 437340000 | TPS 4980.25 | ETA 21:09:07
Time 02:49:56 | Step 58159104 / 437340000 | TPS 5085.5 | ETA 20:42:41
Time 02:50:06 | Step 58212562 / 437340000 | TPS 5345.75 | ETA 19:42:01
Time 02:50:16 | Step 58269353 / 437340000 | TPS 5679.02 | ETA 18:32:29
Time 02:50:26 | Step 58326374 / 437340000 | TPS 5702.08 | ETA 18:27:49
Time 02:50:36 | Step 58388521 / 437340000 | TPS 6214.65 | ETA 16:56:17
Time 02:50:46 | Step 58445538 / 437340000 | TPS 5701.69 | ETA 18:27:33
Time 02:50:56 | Step 58502341 / 437340000 | TPS 5680.26 | ETA 18:31:33
Time 02:51:06 | Step 58561316 / 437340000 | TPS 5897.46 | ETA 17:50:27
Time 02:51:16 | Step 58619200 / 437340000 | TPS 5788.26 | ETA 18:10:29
Time 02:51:26 | Step 58680361 / 437340000 | TPS 6116.02 | ETA 17:11:52
Time 02:51:36 | Step 58744793 / 437340000 | TPS 6443.12 | ETA 16:19:19
Time 02:51:46 | Step 58808701 / 437340000 | TPS 6390.73 | ETA 16:27:11
Time 02:51:56 | Step 58871511 / 437340000 | TPS 6280.99 | ETA 16:44:16
Time 02:52:06 | Step 58936202 / 437340000 | TPS 6469.03 | ETA 16:14:54
Time 02:52:16 | Step 59003611 / 437340000 | TPS 6740.86 | ETA 15:35:25
Time 02:52:26 | Step 59063820 / 437340000 | TPS 6020.89 | ETA 17:27:07
Time 02:52:36 | Step 59122591 / 437340000 | TPS 5877.07 | ETA 17:52:34
Time 02:52:46 | Step 59180670 / 437340000 | TPS 5807.82 | ETA 18:05:12
Time 02:52:56 | Step 59240061 / 437340000 | TPS 5939.07 | ETA 17:41:03
Time 02:53:06 | Step 59304135 / 437340000 | TPS 6407.33 | ETA 16:23:20
Time 02:53:16 | Step 59365083 / 437340000 | TPS 6094.78 | ETA 17:13:36
Time 02:53:26 | Step 59423228 / 437340000 | TPS 5814.23 | ETA 18:03:18
Time 02:53:36 | Step 59482223 / 437340000 | TPS 5899.43 | ETA 17:47:29
Time 02:53:46 | Step 59539076 / 437340000 | TPS 5685.24 | ETA 18:27:32
Time 02:53:56 | Step 59595850 / 437340000 | TPS 5677.34 | ETA 18:28:55
Time 02:54:06 | Step 59651538 / 437340000 | TPS 5568.73 | ETA 18:50:23
Time 02:54:16 | Step 59709464 / 437340000 | TPS 5792.43 | ETA 18:06:33
Time 02:54:26 | Step 59768940 / 437340000 | TPS 5947.54 | ETA 17:38:03
Time 02:54:36 | Step 59831528 / 437340000 | TPS 6258.61 | ETA 16:45:18
Time 02:54:46 | Step 59895811 / 437340000 | TPS 6428.29 | ETA 16:18:36
Time 02:54:56 | Step 59958335 / 437340000 | TPS 6252.36 | ETA 16:45:58
Time 02:55:06 | Step 60020495 / 437340000 | TPS 6215.98 | ETA 16:51:41
Time 02:55:16 | Step 60079641 / 437340000 | TPS 5914.53 | ETA 17:43:05
Time 02:55:26 | Step 60136502 / 437340000 | TPS 5686.05 | ETA 18:25:38
Time 02:55:36 | Step 60195788 / 437340000 | TPS 5928.54 | ETA 17:40:15
Time 02:55:46 | Step 60253598 / 437340000 | TPS 5780.97 | ETA 18:07:08
Time 02:55:56 | Step 60313025 / 437340000 | TPS 5942.68 | ETA 17:37:23
Time 02:56:06 | Step 60373261 / 437340000 | TPS 6023.57 | ETA 17:23:01
Time 02:56:16 | Step 60431364 / 437340000 | TPS 5810.26 | ETA 18:01:09
Time 02:56:26 | Step 60485832 / 437340000 | TPS 5446.77 | ETA 19:13:08
Time 02:56:36 | Step 60545251 / 437340000 | TPS 5941.85 | ETA 17:36:53
Time 02:56:46 | Step 60604349 / 437340000 | TPS 5909.78 | ETA 17:42:27
Time 02:56:56 | Step 60658777 / 437340000 | TPS 5442.54 | ETA 19:13:30
Time 02:57:06 | Step 60714194 / 437340000 | TPS 5541.43 | ETA 18:52:45
Time 02:57:16 | Step 60767612 / 437340000 | TPS 5341.78 | ETA 19:34:55
Time 02:57:26 | Step 60824103 / 437340000 | TPS 5649.03 | ETA 18:30:51
Time 02:57:36 | Step 60879905 / 437340000 | TPS 5580.16 | ETA 18:44:24
Time 02:57:46 | Step 60940489 / 437340000 | TPS 6058.35 | ETA 17:15:29
Time 02:57:56 | Step 60999148 / 437340000 | TPS 5865.89 | ETA 17:49:17
Time 02:58:06 | Step 61057650 / 437340000 | TPS 5850.15 | ETA 17:52:00
Time 02:58:16 | Step 61116781 / 437340000 | TPS 5913.07 | ETA 17:40:25
Time 02:58:26 | Step 61169419 / 437340000 | TPS 5263.73 | ETA 19:51:04
Time 02:58:36 | Step 61224128 / 437340000 | TPS 5470.88 | ETA 19:05:48
Time 02:58:46 | Step 61280928 / 437340000 | TPS 5679.92 | ETA 18:23:28
Time 02:58:56 | Step 61333051 / 437340000 | TPS 5212.24 | ETA 20:02:19
Time 02:59:06 | Step 61389432 / 437340000 | TPS 5638.05 | ETA 18:31:20
Time 02:59:16 | Step 61443666 / 437340000 | TPS 5423.1 | ETA 19:15:13
Time 02:59:26 | Step 61502431 / 437340000 | TPS 5876.47 | ETA 17:45:56
Time 02:59:36 | Step 61560979 / 437340000 | TPS 5854.77 | ETA 17:49:43
Time 02:59:46 | Step 61622936 / 437340000 | TPS 6195.64 | ETA 16:50:42
Time 02:59:56 | Step 61683936 / 437340000 | TPS 6099.74 | ETA 17:06:25
Time 03:00:06 | Step 61740447 / 437340000 | TPS 5651.1 | ETA 18:27:44
Time 03:00:16 | Step 61798960 / 437340000 | TPS 5851.26 | ETA 17:49:41
Time 03:00:26 | Step 61856733 / 437340000 | TPS 5777.11 | ETA 18:03:15
Time 03:00:36 | Step 61916053 / 437340000 | TPS 5931.99 | ETA 17:34:48
Time 03:00:46 | Step 61975108 / 437340000 | TPS 5905.5 | ETA 17:39:21
Time 03:00:56 | Step 62031584 / 437340000 | TPS 5647.55 | ETA 18:27:35
Time 03:01:06 | Step 62089569 / 437340000 | TPS 5798.42 | ETA 17:58:35
Time 03:01:16 | Step 62147374 / 437340000 | TPS 5780.44 | ETA 18:01:47
Time 03:01:26 | Step 62205759 / 437340000 | TPS 5838.46 | ETA 17:50:52
Time 03:01:36 | Step 62267167 / 437340000 | TPS 6140.79 | ETA 16:57:58
Time 03:01:46 | Step 62329247 / 437340000 | TPS 6207.92 | ETA 16:46:48
Time 03:01:56 | Step 62390701 / 437340000 | TPS 6145.21 | ETA 16:56:54
Time 03:02:06 | Step 62452237 / 437340000 | TPS 6153.57 | ETA 16:55:21
Time 03:02:16 | Step 62514998 / 437340000 | TPS 6276.06 | ETA 16:35:23
Time 03:02:26 | Step 62577102 / 437340000 | TPS 6210.32 | ETA 16:45:45
Time 03:02:36 | Step 62635898 / 437340000 | TPS 5879.59 | ETA 17:42:09
Time 03:02:46 | Step 62693470 / 437340000 | TPS 5756.94 | ETA 18:04:37
Time 03:02:56 | Step 62749027 / 437340000 | TPS 5555.66 | ETA 18:43:45
Time 03:03:06 | Step 62810825 / 437340000 | TPS 6179.79 | ETA 16:50:05
Time 03:03:16 | Step 62872457 / 437340000 | TPS 6163.19 | ETA 16:52:38
Time 03:03:26 | Step 62927216 / 437340000 | TPS 5475.9 | ETA 18:59:34
Time 03:03:36 | Step 62978037 / 437340000 | TPS 5082.04 | ETA 20:27:43
Time 03:03:46 | Step 63033829 / 437340000 | TPS 5579.16 | ETA 18:38:10
Time 03:03:56 | Step 63088104 / 437340000 | TPS 5427.33 | ETA 19:09:16
Time 03:04:06 | Step 63146015 / 437340000 | TPS 5791.06 | ETA 17:56:55
Time 03:04:16 | Step 63205763 / 437340000 | TPS 5974.75 | ETA 17:23:39
Time 03:04:26 | Step 63266213 / 437340000 | TPS 6044.95 | ETA 17:11:21
Time 03:04:36 | Step 63324205 / 437340000 | TPS 5799.14 | ETA 17:54:55
Time 03:04:46 | Step 63379623 / 437340000 | TPS 5541.74 | ETA 18:44:40
Time 03:04:56 | Step 63435354 / 437340000 | TPS 5573.03 | ETA 18:38:11
Time 03:05:06 | Step 63493782 / 437340000 | TPS 5842.76 | ETA 17:46:24
Time 03:05:16 | Step 63549973 / 437340000 | TPS 5619.07 | ETA 18:28:41
Time 03:05:26 | Step 63611107 / 437340000 | TPS 6113.36 | ETA 16:58:53
[...]
Time 21:02:26 | Step 421562950 / 437340000 | TPS 6123.7 | ETA 00:42:56
Time 21:02:36 | Step 421624983 / 437340000 | TPS 6203.28 | ETA 00:42:13
Time 21:02:46 | Step 421687222 / 437340000 | TPS 6223.82 | ETA 00:41:54
Time 21:02:56 | Step 421746296 / 437340000 | TPS 5907.35 | ETA 00:43:59
Time 21:03:06 | Step 421805551 / 437340000 | TPS 5925.42 | ETA 00:43:41
Time 21:03:16 | Step 421860488 / 437340000 | TPS 5493.62 | ETA 00:46:57
Time 21:03:26 | Step 421916030 / 437340000 | TPS 5554.19 | ETA 00:46:16
Time 21:03:36 | Step 421980600 / 437340000 | TPS 6456.99 | ETA 00:39:38
Time 21:03:46 | Step 422043452 / 437340000 | TPS 6284.98 | ETA 00:40:33
Time 21:03:56 | Step 422107813 / 437340000 | TPS 6436.06 | ETA 00:39:26
Time 21:04:06 | Step 422164425 / 437340000 | TPS 5661.13 | ETA 00:44:40
Time 21:04:16 | Step 422220371 / 437340000 | TPS 5594.6 | ETA 00:45:02
Time 21:04:26 | Step 422273565 / 437340000 | TPS 5319.39 | ETA 00:47:12
Time 21:04:36 | Step 422328409 / 437340000 | TPS 5484.22 | ETA 00:45:37
Time 21:04:46 | Step 422381699 / 437340000 | TPS 5328.95 | ETA 00:46:46
Time 21:04:56 | Step 422434123 / 437340000 | TPS 5242.38 | ETA 00:47:23
Time 21:05:06 | Step 422491568 / 437340000 | TPS 5744.45 | ETA 00:43:04
Time 21:05:16 | Step 422545187 / 437340000 | TPS 5361.89 | ETA 00:45:59
Time 21:05:26 | Step 422599062 / 437340000 | TPS 5387.32 | ETA 00:45:36
Time 21:05:36 | Step 422651504 / 437340000 | TPS 5244.18 | ETA 00:46:40
Time 21:05:46 | Step 422707534 / 437340000 | TPS 5602.85 | ETA 00:43:31
Time 21:05:56 | Step 422768275 / 437340000 | TPS 6074.05 | ETA 00:39:59
Time 21:06:06 | Step 422824780 / 437340000 | TPS 5650.34 | ETA 00:42:48
Time 21:06:16 | Step 422882288 / 437340000 | TPS 5750.76 | ETA 00:41:54
Time 21:06:26 | Step 422932239 / 437340000 | TPS 4995.06 | ETA 00:48:04
Time 21:06:36 | Step 422988262 / 437340000 | TPS 5602.07 | ETA 00:42:41
Time 21:06:46 | Step 423044892 / 437340000 | TPS 5663 | ETA 00:42:04
Time 21:06:56 | Step 423101300 / 437340000 | TPS 5640.71 | ETA 00:42:04
Time 21:07:06 | Step 423157456 / 437340000 | TPS 5615.59 | ETA 00:42:05
Time 21:07:16 | Step 423216797 / 437340000 | TPS 5934.07 | ETA 00:39:40
Time 21:07:26 | Step 423275414 / 437340000 | TPS 5861.64 | ETA 00:39:59
Time 21:07:36 | Step 423333455 / 437340000 | TPS 5803.96 | ETA 00:40:13
Time 21:07:46 | Step 423392445 / 437340000 | TPS 5898.93 | ETA 00:39:24
Time 21:07:56 | Step 423452929 / 437340000 | TPS 6048.32 | ETA 00:38:16
Time 21:08:06 | Step 423510272 / 437340000 | TPS 5734.16 | ETA 00:40:11
Time 21:08:16 | Step 423568169 / 437340000 | TPS 5789.62 | ETA 00:39:38
Time 21:08:26 | Step 423627010 / 437340000 | TPS 5884.06 | ETA 00:38:50
Time 21:08:36 | Step 423682276 / 437340000 | TPS 5526.59 | ETA 00:41:11
Time 21:08:46 | Step 423735379 / 437340000 | TPS 5310.22 | ETA 00:42:41
Time 21:08:56 | Step 423787337 / 437340000 | TPS 5195.75 | ETA 00:43:28
Time 21:09:06 | Step 423846296 / 437340000 | TPS 5895.87 | ETA 00:38:08
Time 21:09:16 | Step 423904529 / 437340000 | TPS 5823.28 | ETA 00:38:27
Time 21:09:26 | Step 423964234 / 437340000 | TPS 5970.29 | ETA 00:37:20
Time 21:09:36 | Step 424025944 / 437340000 | TPS 6170.95 | ETA 00:35:57
Time 21:09:46 | Step 424092829 / 437340000 | TPS 6688.48 | ETA 00:33:00
Time 21:09:56 | Step 424154308 / 437340000 | TPS 6147.88 | ETA 00:35:44
Time 21:10:06 | Step 424216489 / 437340000 | TPS 6218.06 | ETA 00:35:10
Time 21:10:16 | Step 424270068 / 437340000 | TPS 5357.88 | ETA 00:40:39
Time 21:10:26 | Step 424325165 / 437340000 | TPS 5509.68 | ETA 00:39:22
Time 21:10:36 | Step 424384623 / 437340000 | TPS 5945.78 | ETA 00:36:18
Time 21:10:46 | Step 424442959 / 437340000 | TPS 5833.59 | ETA 00:36:50
Time 21:10:56 | Step 424502903 / 437340000 | TPS 5994.38 | ETA 00:35:41
Time 21:11:06 | Step 424560472 / 437340000 | TPS 5756.86 | ETA 00:36:59
Time 21:11:16 | Step 424612249 / 437340000 | TPS 5177.65 | ETA 00:40:58
Time 21:11:26 | Step 424669895 / 437340000 | TPS 5764.56 | ETA 00:36:37
Time 21:11:36 | Step 424728804 / 437340000 | TPS 5890.84 | ETA 00:35:40
Time 21:11:46 | Step 424792534 / 437340000 | TPS 6372.91 | ETA 00:32:48
Time 21:11:56 | Step 424855427 / 437340000 | TPS 6289.28 | ETA 00:33:05
Time 21:12:06 | Step 424916332 / 437340000 | TPS 6090.41 | ETA 00:33:59
Time 21:12:16 | Step 424977989 / 437340000 | TPS 6165.69 | ETA 00:33:24
Time 21:12:26 | Step 425040002 / 437340000 | TPS 6201.3 | ETA 00:33:03
Time 21:12:36 | Step 425106834 / 437340000 | TPS 6682.98 | ETA 00:30:30
Time 21:12:46 | Step 425169665 / 437340000 | TPS 6282.84 | ETA 00:32:17
Time 21:12:56 | Step 425233077 / 437340000 | TPS 6341.15 | ETA 00:31:49
Time 21:13:06 | Step 425291590 / 437340000 | TPS 5851.23 | ETA 00:34:19
Time 21:13:16 | Step 425349482 / 437340000 | TPS 5789.08 | ETA 00:34:31
Time 21:13:26 | Step 425408579 / 437340000 | TPS 5909.67 | ETA 00:33:38
Time 21:13:36 | Step 425465552 / 437340000 | TPS 5697.26 | ETA 00:34:44
Time 21:13:46 | Step 425520312 / 437340000 | TPS 5475.99 | ETA 00:35:58
Time 21:13:56 | Step 425576824 / 437340000 | TPS 5651.19 | ETA 00:34:41
Time 21:14:06 | Step 425634646 / 437340000 | TPS 5782.18 | ETA 00:33:44
Time 21:14:16 | Step 425687727 / 437340000 | TPS 5307.92 | ETA 00:36:35
Time 21:14:26 | Step 425740504 / 437340000 | TPS 5277.69 | ETA 00:36:37
Time 21:14:36 | Step 425796466 / 437340000 | TPS 5596.18 | ETA 00:34:22
Time 21:14:46 | Step 425854072 / 437340000 | TPS 5760.56 | ETA 00:33:13
Time 21:14:56 | Step 425907739 / 437340000 | TPS 5366.67 | ETA 00:35:30
Time 21:15:06 | Step 425963917 / 437340000 | TPS 5617.77 | ETA 00:33:45
Time 21:15:16 | Step 426013787 / 437340000 | TPS 4986.94 | ETA 00:37:51
Time 21:15:26 | Step 426067446 / 437340000 | TPS 5365.89 | ETA 00:35:00
Time 21:15:36 | Step 426121168 / 437340000 | TPS 5372.02 | ETA 00:34:48
Time 21:15:46 | Step 426175349 / 437340000 | TPS 5418.02 | ETA 00:34:20
Time 21:15:56 | Step 426227637 / 437340000 | TPS 5228.74 | ETA 00:35:25
Time 21:16:06 | Step 426282781 / 437340000 | TPS 5514.37 | ETA 00:33:25
Time 21:16:16 | Step 426337594 / 437340000 | TPS 5481.25 | ETA 00:33:27
Time 21:16:26 | Step 426393518 / 437340000 | TPS 5592.29 | ETA 00:32:37
Time 21:16:36 | Step 426444968 / 437340000 | TPS 5144.99 | ETA 00:35:17
Time 21:16:46 | Step 426500532 / 437340000 | TPS 5556.38 | ETA 00:32:30
Time 21:16:56 | Step 426559787 / 437340000 | TPS 5925.49 | ETA 00:30:19
Time 21:17:06 | Step 426618764 / 437340000 | TPS 5897.63 | ETA 00:30:17
Time 21:17:16 | Step 426676068 / 437340000 | TPS 5730.19 | ETA 00:31:01
Time 21:17:26 | Step 426735766 / 437340000 | TPS 5969.76 | ETA 00:29:36
Time 21:17:36 | Step 426793539 / 437340000 | TPS 5777.27 | ETA 00:30:25
Time 21:17:46 | Step 426850954 / 437340000 | TPS 5741.47 | ETA 00:30:26
Time 21:17:56 | Step 426907838 / 437340000 | TPS 5688.38 | ETA 00:30:33
Time 21:18:06 | Step 426965803 / 437340000 | TPS 5796.5 | ETA 00:29:49
Time 21:18:16 | Step 427022175 / 437340000 | TPS 5637.13 | ETA 00:30:30
Time 21:18:26 | Step 427078361 / 437340000 | TPS 5618.59 | ETA 00:30:26
Time 21:18:36 | Step 427129669 / 437340000 | TPS 5130.79 | ETA 00:33:10
Time 21:18:46 | Step 427182158 / 437340000 | TPS 5248.84 | ETA 00:32:15
Time 21:18:56 | Step 427238862 / 437340000 | TPS 5670.33 | ETA 00:29:41
Time 21:19:06 | Step 427295244 / 437340000 | TPS 5638.12 | ETA 00:29:41
Time 21:19:16 | Step 427347432 / 437340000 | TPS 5218.76 | ETA 00:31:54
Time 21:19:26 | Step 427405156 / 437340000 | TPS 5772.23 | ETA 00:28:41
Time 21:19:36 | Step 427463179 / 437340000 | TPS 5802.28 | ETA 00:28:22
Time 21:19:46 | Step 427514742 / 437340000 | TPS 5156.27 | ETA 00:31:45
Time 21:19:56 | Step 427566006 / 437340000 | TPS 5126.31 | ETA 00:31:46
Time 21:20:06 | Step 427617815 / 437340000 | TPS 5180.65 | ETA 00:31:16
Time 21:20:16 | Step 427672579 / 437340000 | TPS 5476.39 | ETA 00:29:25
Time 21:20:26 | Step 427731543 / 437340000 | TPS 5896.35 | ETA 00:27:09
Time 21:20:36 | Step 427790432 / 437340000 | TPS 5888.78 | ETA 00:27:01
Time 21:20:46 | Step 427848044 / 437340000 | TPS 5761.17 | ETA 00:27:27
Time 21:20:56 | Step 427912735 / 437340000 | TPS 6468.87 | ETA 00:24:17
Time 21:21:06 | Step 427978501 / 437340000 | TPS 6576.35 | ETA 00:23:43
Time 21:21:16 | Step 428046408 / 437340000 | TPS 6790.63 | ETA 00:22:48
Time 21:21:26 | Step 428115686 / 437340000 | TPS 6927.78 | ETA 00:22:11
Time 21:21:36 | Step 428181673 / 437340000 | TPS 6598.64 | ETA 00:23:07
Time 21:21:46 | Step 428248048 / 437340000 | TPS 6637.47 | ETA 00:22:49
Time 21:21:56 | Step 428312561 / 437340000 | TPS 6451.27 | ETA 00:23:19
Time 21:22:06 | Step 428372373 / 437340000 | TPS 5981.16 | ETA 00:24:59
Time 21:22:16 | Step 428435589 / 437340000 | TPS 6321.52 | ETA 00:23:28
Time 21:22:26 | Step 428500312 / 437340000 | TPS 6472.23 | ETA 00:22:45
Time 21:22:36 | Step 428556660 / 437340000 | TPS 5634.78 | ETA 00:25:58
Time 21:22:46 | Step 428619158 / 437340000 | TPS 6249.76 | ETA 00:23:15
Time 21:22:56 | Step 428678213 / 437340000 | TPS 5905.44 | ETA 00:24:26
Time 21:23:06 | Step 428739098 / 437340000 | TPS 6088.48 | ETA 00:23:32
Time 21:23:16 | Step 428797668 / 437340000 | TPS 5856.94 | ETA 00:24:18
Time 21:23:26 | Step 428850169 / 437340000 | TPS 5249.99 | ETA 00:26:57
Time 21:23:36 | Step 428908479 / 437340000 | TPS 5830.97 | ETA 00:24:05
Time 21:23:46 | Step 428965110 / 437340000 | TPS 5663.05 | ETA 00:24:38
Time 21:23:56 | Step 429019635 / 437340000 | TPS 5452.45 | ETA 00:25:25
Time 21:24:06 | Step 429074698 / 437340000 | TPS 5506.24 | ETA 00:25:01
Time 21:24:16 | Step 429130615 / 437340000 | TPS 5591.63 | ETA 00:24:28
Time 21:24:26 | Step 429186659 / 437340000 | TPS 5604.34 | ETA 00:24:14
Time 21:24:36 | Step 429245848 / 437340000 | TPS 5918.84 | ETA 00:22:47
Time 21:24:46 | Step 429304096 / 437340000 | TPS 5824.8 | ETA 00:22:59
Time 21:24:56 | Step 429361518 / 437340000 | TPS 5742.14 | ETA 00:23:09
Time 21:25:06 | Step 429423135 / 437340000 | TPS 6161.68 | ETA 00:21:24
Time 21:25:16 | Step 429488559 / 437340000 | TPS 6542.33 | ETA 00:20:00
Time 21:25:26 | Step 429552786 / 437340000 | TPS 6422.64 | ETA 00:20:12
Time 21:25:36 | Step 429613095 / 437340000 | TPS 6030.82 | ETA 00:21:21
Time 21:25:46 | Step 429669972 / 437340000 | TPS 5687.67 | ETA 00:22:28
Time 21:25:56 | Step 429731376 / 437340000 | TPS 6140.4 | ETA 00:20:39
Time 21:26:06 | Step 429795813 / 437340000 | TPS 6443.7 | ETA 00:19:30
Time 21:26:16 | Step 429863245 / 437340000 | TPS 6742.96 | ETA 00:18:28
Time 21:26:26 | Step 429925634 / 437340000 | TPS 6238.82 | ETA 00:19:48
Time 21:26:36 | Step 429991361 / 437340000 | TPS 6572.6 | ETA 00:18:38
Time 21:26:46 | Step 430054535 / 437340000 | TPS 6317.38 | ETA 00:19:13
Time 21:26:56 | Step 430118059 / 437340000 | TPS 6352.36 | ETA 00:18:56
Time 21:27:06 | Step 430179831 / 437340000 | TPS 6177.17 | ETA 00:19:19
Time 21:27:16 | Step 430238960 / 437340000 | TPS 5912.84 | ETA 00:20:00
Time 21:27:26 | Step 430298201 / 437340000 | TPS 5924.05 | ETA 00:19:48
Time 21:27:36 | Step 430356734 / 437340000 | TPS 5853.23 | ETA 00:19:53
Time 21:27:46 | Step 430415209 / 437340000 | TPS 5847.48 | ETA 00:19:44
Time 21:27:56 | Step 430472587 / 437340000 | TPS 5737.77 | ETA 00:19:56
Time 21:28:06 | Step 430535360 / 437340000 | TPS 6277.28 | ETA 00:18:04
Time 21:28:16 | Step 430593020 / 437340000 | TPS 5765.99 | ETA 00:19:30
Time 21:28:26 | Step 430651858 / 437340000 | TPS 5883.77 | ETA 00:18:56
Time 21:28:36 | Step 430712273 / 437340000 | TPS 6041.48 | ETA 00:18:17
Time 21:28:46 | Step 430770966 / 437340000 | TPS 5869.06 | ETA 00:18:39
Time 21:28:56 | Step 430825779 / 437340000 | TPS 5481.22 | ETA 00:19:48
Time 21:29:06 | Step 430881754 / 437340000 | TPS 5597.25 | ETA 00:19:13
Time 21:29:16 | Step 430945823 / 437340000 | TPS 6406.9 | ETA 00:16:38
Time 21:29:26 | Step 431004081 / 437340000 | TPS 5825.78 | ETA 00:18:07
Time 21:29:36 | Step 431058063 / 437340000 | TPS 5398.17 | ETA 00:19:23
Time 21:29:46 | Step 431114847 / 437340000 | TPS 5678.34 | ETA 00:18:16
Time 21:29:56 | Step 431166407 / 437340000 | TPS 5155.95 | ETA 00:19:57
Time 21:30:06 | Step 431217368 / 437340000 | TPS 5095.83 | ETA 00:20:01
Time 21:30:16 | Step 431270548 / 437340000 | TPS 5317.98 | ETA 00:19:01
Time 21:30:26 | Step 431324394 / 437340000 | TPS 5384.45 | ETA 00:18:37
Time 21:30:36 | Step 431374937 / 437340000 | TPS 5054.29 | ETA 00:19:40
Time 21:30:46 | Step 431425339 / 437340000 | TPS 5040.17 | ETA 00:19:33
Time 21:30:56 | Step 431479454 / 437340000 | TPS 5411.49 | ETA 00:18:02
Time 21:31:06 | Step 431536450 / 437340000 | TPS 5699.6 | ETA 00:16:58
Time 21:31:16 | Step 431592965 / 437340000 | TPS 5651.45 | ETA 00:16:56
Time 21:31:26 | Step 431647115 / 437340000 | TPS 5414.98 | ETA 00:17:31
Time 21:31:36 | Step 431701827 / 437340000 | TPS 5471.17 | ETA 00:17:10
Time 21:31:46 | Step 431758227 / 437340000 | TPS 5639.93 | ETA 00:16:29
Time 21:31:56 | Step 431818129 / 437340000 | TPS 5990.12 | ETA 00:15:21
Time 21:32:06 | Step 431877605 / 437340000 | TPS 5947.56 | ETA 00:15:18
Time 21:32:16 | Step 431935509 / 437340000 | TPS 5790.34 | ETA 00:15:33
Time 21:32:26 | Step 431988787 / 437340000 | TPS 5327.74 | ETA 00:16:44
Time 21:32:36 | Step 432047597 / 437340000 | TPS 5880.92 | ETA 00:14:59
Time 21:32:46 | Step 432109398 / 437340000 | TPS 6180.05 | ETA 00:14:06
Time 21:32:56 | Step 432173089 / 437340000 | TPS 6369.02 | ETA 00:13:31
Time 21:33:06 | Step 432233702 / 437340000 | TPS 6060.92 | ETA 00:14:02
Time 21:33:16 | Step 432294633 / 437340000 | TPS 6093.06 | ETA 00:13:48
Time 21:33:26 | Step 432362467 / 437340000 | TPS 6783.37 | ETA 00:12:13
Time 21:33:36 | Step 432425689 / 437340000 | TPS 6322.16 | ETA 00:12:57
Time 21:33:46 | Step 432482441 / 437340000 | TPS 5675.19 | ETA 00:14:15
Time 21:33:56 | Step 432538721 / 437340000 | TPS 5627.98 | ETA 00:14:13
Time 21:34:06 | Step 432603194 / 437340000 | TPS 6447.23 | ETA 00:12:14
Time 21:34:16 | Step 432664164 / 437340000 | TPS 6096.96 | ETA 00:12:46
Time 21:34:26 | Step 432728130 / 437340000 | TPS 6396.58 | ETA 00:12:00
Time 21:34:36 | Step 432787959 / 437340000 | TPS 5982.7 | ETA 00:12:40
Time 21:34:46 | Step 432844480 / 437340000 | TPS 5651.8 | ETA 00:13:15
Time 21:34:56 | Step 432902981 / 437340000 | TPS 5850.02 | ETA 00:12:38
Time 21:35:06 | Step 432963039 / 437340000 | TPS 6005.73 | ETA 00:12:08
Time 21:35:16 | Step 433020928 / 437340000 | TPS 5788.88 | ETA 00:12:26
Time 21:35:26 | Step 433076415 / 437340000 | TPS 5548.65 | ETA 00:12:48
Time 21:35:36 | Step 433135679 / 437340000 | TPS 5926.37 | ETA 00:11:49
Time 21:35:46 | Step 433195323 / 437340000 | TPS 5964.39 | ETA 00:11:34
Time 21:35:56 | Step 433256237 / 437340000 | TPS 6091.39 | ETA 00:11:10
Time 21:36:06 | Step 433317788 / 437340000 | TPS 6155.05 | ETA 00:10:53
Time 21:36:16 | Step 433375361 / 437340000 | TPS 5757.28 | ETA 00:11:28
Time 21:36:26 | Step 433430459 / 437340000 | TPS 5509.73 | ETA 00:11:49
Time 21:36:36 | Step 433490503 / 437340000 | TPS 6004.33 | ETA 00:10:41
Time 21:36:46 | Step 433555900 / 437340000 | TPS 6539.6 | ETA 00:09:38
Time 21:36:56 | Step 433617238 / 437340000 | TPS 6133.75 | ETA 00:10:06
Time 21:37:06 | Step 433670798 / 437340000 | TPS 5355.95 | ETA 00:11:25
Time 21:37:16 | Step 433727220 / 437340000 | TPS 5642.16 | ETA 00:10:40
Time 21:37:26 | Step 433784718 / 437340000 | TPS 5749.74 | ETA 00:10:18
Time 21:37:36 | Step 433849956 / 437340000 | TPS 6523.72 | ETA 00:08:54
Time 21:37:46 | Step 433907939 / 437340000 | TPS 5798.29 | ETA 00:09:51
Time 21:37:56 | Step 433960676 / 437340000 | TPS 5273.69 | ETA 00:10:40
Time 21:38:06 | Step 434018782 / 437340000 | TPS 5810.53 | ETA 00:09:31
Time 21:38:16 | Step 434069767 / 437340000 | TPS 5098.5 | ETA 00:10:41
Time 21:38:26 | Step 434122297 / 437340000 | TPS 5252.99 | ETA 00:10:12
Time 21:38:36 | Step 434175093 / 437340000 | TPS 5279.51 | ETA 00:09:59
Time 21:38:46 | Step 434227742 / 437340000 | TPS 5264.83 | ETA 00:09:51
Time 21:38:56 | Step 434280705 / 437340000 | TPS 5296.26 | ETA 00:09:37
Time 21:39:06 | Step 434335628 / 437340000 | TPS 5492.01 | ETA 00:09:07
Time 21:39:16 | Step 434395729 / 437340000 | TPS 6009.97 | ETA 00:08:09
Time 21:39:26 | Step 434451500 / 437340000 | TPS 5577.05 | ETA 00:08:37
Time 21:39:36 | Step 434504587 / 437340000 | TPS 5308.67 | ETA 00:08:54
Time 21:39:46 | Step 434559683 / 437340000 | TPS 5509.57 | ETA 00:08:24
Time 21:39:56 | Step 434614915 / 437340000 | TPS 5523.2 | ETA 00:08:13
Time 21:40:06 | Step 434668614 / 437340000 | TPS 5369.82 | ETA 00:08:17
Time 21:40:16 | Step 434723471 / 437340000 | TPS 5485.64 | ETA 00:07:56
Time 21:40:26 | Step 434778810 / 437340000 | TPS 5533.84 | ETA 00:07:42
Time 21:40:36 | Step 434837391 / 437340000 | TPS 5857.91 | ETA 00:07:07
Time 21:40:46 | Step 434894764 / 437340000 | TPS 5737.11 | ETA 00:07:06
Time 21:40:56 | Step 434953922 / 437340000 | TPS 5915.79 | ETA 00:06:43
Time 21:41:06 | Step 435011044 / 437340000 | TPS 5711.92 | ETA 00:06:47
Time 21:41:16 | Step 435069109 / 437340000 | TPS 5806.46 | ETA 00:06:31
Time 21:41:26 | Step 435119765 / 437340000 | TPS 5065.34 | ETA 00:07:18
Time 21:41:36 | Step 435176800 / 437340000 | TPS 5703.45 | ETA 00:06:19
Time 21:41:46 | Step 435228420 / 437340000 | TPS 5161.95 | ETA 00:06:49
Time 21:41:56 | Step 435282432 / 437340000 | TPS 5401.15 | ETA 00:06:20
Time 21:42:06 | Step 435338101 / 437340000 | TPS 5566.68 | ETA 00:05:59
Time 21:42:16 | Step 435392065 / 437340000 | TPS 5396.34 | ETA 00:06:00
Time 21:42:26 | Step 435446325 / 437340000 | TPS 5425.71 | ETA 00:05:49
Time 21:42:36 | Step 435502801 / 437340000 | TPS 5647.54 | ETA 00:05:25
Time 21:42:46 | Step 435555405 / 437340000 | TPS 5260.33 | ETA 00:05:39
Time 21:42:56 | Step 435606137 / 437340000 | TPS 5073.13 | ETA 00:05:41
Time 21:43:06 | Step 435660855 / 437340000 | TPS 5471.74 | ETA 00:05:06
Time 21:43:16 | Step 435721036 / 437340000 | TPS 6018.06 | ETA 00:04:29
Time 21:43:26 | Step 435782881 / 437340000 | TPS 6184.49 | ETA 00:04:11
Time 21:43:36 | Step 435839782 / 437340000 | TPS 5690.05 | ETA 00:04:23
Time 21:43:46 | Step 435894728 / 437340000 | TPS 5494.56 | ETA 00:04:23
Time 21:43:56 | Step 435955108 / 437340000 | TPS 6037.96 | ETA 00:03:49
Time 21:44:06 | Step 436018235 / 437340000 | TPS 6312.64 | ETA 00:03:29
Time 21:44:16 | Step 436079419 / 437340000 | TPS 6118.33 | ETA 00:03:26
Time 21:44:26 | Step 436138798 / 437340000 | TPS 5937.89 | ETA 00:03:22
Time 21:44:36 | Step 436199279 / 437340000 | TPS 6048.09 | ETA 00:03:08
Time 21:44:46 | Step 436258206 / 437340000 | TPS 5892.67 | ETA 00:03:03
Time 21:44:56 | Step 436319588 / 437340000 | TPS 6138.14 | ETA 00:02:46
Time 21:45:06 | Step 436376411 / 437340000 | TPS 5682.3 | ETA 00:02:49
Time 21:45:16 | Step 436441030 / 437340000 | TPS 6461.75 | ETA 00:02:19
Time 21:45:26 | Step 436503332 / 437340000 | TPS 6230.17 | ETA 00:02:14
Time 21:45:36 | Step 436561832 / 437340000 | TPS 5849.87 | ETA 00:02:13
Time 21:45:46 | Step 436623811 / 437340000 | TPS 6197.86 | ETA 00:01:55
Time 21:45:56 | Step 436689191 / 437340000 | TPS 6537.92 | ETA 00:01:39
Time 21:46:06 | Step 436751733 / 437340000 | TPS 6254.19 | ETA 00:01:34
Time 21:46:16 | Step 436810061 / 437340000 | TPS 5832.75 | ETA 00:01:30
Time 21:46:26 | Step 436874531 / 437340000 | TPS 6446.99 | ETA 00:01:12
Time 21:46:36 | Step 436936402 / 437340000 | TPS 6186.95 | ETA 00:01:05
Time 21:46:46 | Step 437001408 / 437340000 | TPS 6500.52 | ETA 00:00:52
Time 21:46:56 | Step 437061464 / 437340000 | TPS 6005.5 | ETA 00:00:46
Time 21:47:06 | Step 437122675 / 437340000 | TPS 6120.83 | ETA 00:00:35
Time 21:47:16 | Step 437185884 / 437340000 | TPS 6320.86 | ETA 00:00:24
Time 21:47:26 | Step 437247862 / 437340000 | TPS 6197.75 | ETA 00:00:14
Time 21:47:36 | Step 437310488 / 437340000 | TPS 6262.41 | ETA 00:00:04
Time 21:47:41 | Step 437340000 / 437340000 | TPS 6390.71 | ETA 00:00:00
Average TPS: 5575.66
---------
-- Neighborlist stats:
13325084 normal updates / 1457767 forced updates / 0 dangerous updates
n_neigh_min: 44 / n_neigh_max: 300 / n_neigh_avg: 134.383
shortest rebuild period: 15
-- Cell list stats:
Dimension: 45, 45, 45
n_min    : 0 / n_max: 99 / n_avg: 0.0131797
** run complete **
