/groups/sbinlab/giulio/miniconda3/envs/hoomd/lib/python3.8/hoomd/__init__.py
HOOMD-blue 2.9.3 CUDA (9.0) SINGLE MPI TBB SSE SSE2 
Compiled: 02/18/2022
Copyright (c) 2009-2019 The Regents of the University of Michigan.
-----
You are using HOOMD-blue. Please cite the following:
* J A Anderson, J Glaser, and S C Glotzer. "HOOMD-blue: A Python package for
  high-performance molecular dynamics and hard particle Monte Carlo
  simulations", Computational Materials Science 173 (2020) 109363
-----
-----
You are using MPCD. Please cite the following:
* M P Howard, A Z Panagiotopoulos, and A Nikoubashman. "Efficient mesoscale
  hydrodynamics: Multiparticle collision dynamics with massively parallel GPU
  acceleration", Computer Physics Communications 230 (2018) 10--20
-----
HOOMD-blue is running on the following GPU(s):
 [0]NVIDIA GeForce GTX 780  12 SM_3.5 @ 0.993 GHz, 3022 MiB DRAM
** starting run **
Time 00:00:10 | Step 6096 / 10000 | TPS 601.852 | ETA 00:00:06
Time 00:00:20 | Step 9228 / 10000 | TPS 301.87 | ETA 00:00:02
Time 00:00:23 | Step 10000 / 10000 | TPS 298.351 | ETA 00:00:00
Average TPS: 433.054
---------
-- Neighborlist stats:
70 normal updates / 34 forced updates / 0 dangerous updates
n_neigh_min: 160 / n_neigh_max: 775 / n_neigh_avg: 497.265
shortest rebuild period: 61
-- Cell list stats:
Dimension: 45, 45, 45
n_min    : 0 / n_max: 297 / n_avg: 0.0158573
** run complete **
** starting run **
Time 00:00:33 | Step 20463 / 633280000 | TPS 1046.28 | ETA 168:07:30
Time 00:00:43 | Step 51182 / 633280000 | TPS 3071.85 | ETA 57:15:38
Time 00:00:53 | Step 90399 / 633280000 | TPS 3921.64 | ETA 44:51:00
Time 00:01:03 | Step 133323 / 633280000 | TPS 4292.35 | ETA 40:58:25
Time 00:01:13 | Step 176483 / 633280000 | TPS 4315.92 | ETA 40:44:50
Time 00:01:23 | Step 219322 / 633280000 | TPS 4283.81 | ETA 41:02:59
Time 00:01:33 | Step 269153 / 633280000 | TPS 4983.04 | ETA 35:17:13
Time 00:01:43 | Step 315506 / 633280000 | TPS 4635.13 | ETA 37:55:57
Time 00:01:53 | Step 371206 / 633280000 | TPS 5569.99 | ETA 31:33:48
Time 00:02:03 | Step 428663 / 633280000 | TPS 5745.62 | ETA 30:35:44
Time 00:02:13 | Step 490809 / 633280000 | TPS 6214.52 | ETA 28:17:04
Time 00:02:23 | Step 554016 / 633280000 | TPS 6320.7 | ETA 27:48:23
Time 00:02:33 | Step 616536 / 633280000 | TPS 6251.94 | ETA 28:06:34
Time 00:02:43 | Step 677938 / 633280000 | TPS 6140.18 | ETA 28:37:06
Time 00:02:53 | Step 740568 / 633280000 | TPS 6262.92 | ETA 28:03:17
Time 00:03:03 | Step 796877 / 633280000 | TPS 5630.84 | ETA 31:12:04
Time 00:03:13 | Step 855634 / 633280000 | TPS 5875.58 | ETA 29:53:56
Time 00:03:23 | Step 913117 / 633280000 | TPS 5748.22 | ETA 30:33:30
Time 00:03:33 | Step 974918 / 633280000 | TPS 6180.09 | ETA 28:25:13
Time 00:03:43 | Step 1042859 / 633280000 | TPS 6794.01 | ETA 25:50:58
Time 00:03:53 | Step 1106690 / 633280000 | TPS 6383.04 | ETA 27:30:39
Time 00:04:03 | Step 1164973 / 633280000 | TPS 5828.24 | ETA 30:07:37
Time 00:04:13 | Step 1224855 / 633280000 | TPS 5988.15 | ETA 29:19:10
Time 00:04:23 | Step 1282778 / 633280000 | TPS 5792.26 | ETA 30:18:30
Time 00:04:33 | Step 1340813 / 633280000 | TPS 5803.47 | ETA 30:14:49
Time 00:04:43 | Step 1391277 / 633280000 | TPS 5046.37 | ETA 34:46:56
Time 00:04:53 | Step 1442469 / 633280000 | TPS 5119.12 | ETA 34:17:06
Time 00:05:03 | Step 1497171 / 633280000 | TPS 5470.14 | ETA 32:04:56
Time 00:05:13 | Step 1549030 / 633280000 | TPS 5185.85 | ETA 33:50:18
Time 00:05:23 | Step 1600110 / 633280000 | TPS 5107.96 | ETA 34:21:05
Time 00:05:33 | Step 1654495 / 633280000 | TPS 5438.42 | ETA 32:15:41
Time 00:05:43 | Step 1708459 / 633280000 | TPS 5396.39 | ETA 32:30:35
Time 00:05:53 | Step 1761446 / 633280000 | TPS 5298.67 | ETA 33:06:24
Time 00:06:03 | Step 1816945 / 633280000 | TPS 5549.89 | ETA 31:36:19
Time 00:06:13 | Step 1871117 / 633280000 | TPS 5417.2 | ETA 32:22:36
Time 00:06:23 | Step 1925656 / 633280000 | TPS 5453.64 | ETA 32:09:27
Time 00:06:33 | Step 1979094 / 633280000 | TPS 5343.73 | ETA 32:48:58
Time 00:06:43 | Step 2031362 / 633280000 | TPS 5226.73 | ETA 33:32:53
Time 00:06:53 | Step 2090065 / 633280000 | TPS 5870.24 | ETA 29:52:03
Time 00:07:03 | Step 2148590 / 633280000 | TPS 5852.48 | ETA 29:57:19
Time 00:07:13 | Step 2203603 / 633280000 | TPS 5501.25 | ETA 31:51:55
Time 00:07:23 | Step 2256315 / 633280000 | TPS 5271.16 | ETA 33:15:12
Time 00:07:33 | Step 2309800 / 633280000 | TPS 5348.44 | ETA 32:46:12
Time 00:07:43 | Step 2366213 / 633280000 | TPS 5641.22 | ETA 31:03:59
Time 00:07:53 | Step 2422535 / 633280000 | TPS 5632.2 | ETA 31:06:49
Time 00:08:03 | Step 2480270 / 633280000 | TPS 5773.43 | ETA 30:20:59
Time 00:08:13 | Step 2537378 / 633280000 | TPS 5710.76 | ETA 30:40:48
Time 00:08:23 | Step 2597673 / 633280000 | TPS 6029.47 | ETA 29:03:19
Time 00:08:33 | Step 2655244 / 633280000 | TPS 5757.08 | ETA 30:25:39
Time 00:08:43 | Step 2714332 / 633280000 | TPS 5908.77 | ETA 29:38:36
Time 00:08:53 | Step 2770586 / 633280000 | TPS 5625.37 | ETA 31:08:03
Time 00:09:03 | Step 2831938 / 633280000 | TPS 6135.16 | ETA 28:32:39
Time 00:09:13 | Step 2890526 / 633280000 | TPS 5858.73 | ETA 29:53:18
Time 00:09:23 | Step 2947476 / 633280000 | TPS 5694.95 | ETA 30:44:42
Time 00:09:33 | Step 3006728 / 633280000 | TPS 5925.1 | ETA 29:32:53
Time 00:09:43 | Step 3060305 / 633280000 | TPS 5357.65 | ETA 32:40:29
Time 00:09:53 | Step 3109881 / 633280000 | TPS 4957.52 | ETA 35:18:34
Time 00:10:03 | Step 3162318 / 633280000 | TPS 5243.62 | ETA 33:22:48
Time 00:10:13 | Step 3213985 / 633280000 | TPS 5166.66 | ETA 33:52:28
Time 00:10:23 | Step 3268763 / 633280000 | TPS 5477.78 | ETA 31:56:52
Time 00:10:33 | Step 3323047 / 633280000 | TPS 5428.4 | ETA 32:14:08
Time 00:10:43 | Step 3378153 / 633280000 | TPS 5510.53 | ETA 31:45:08
Time 00:10:53 | Step 3433899 / 633280000 | TPS 5574.59 | ETA 31:23:05
Time 00:11:03 | Step 3491339 / 633280000 | TPS 5743.84 | ETA 30:27:25
Time 00:11:13 | Step 3544923 / 633280000 | TPS 5358.36 | ETA 32:38:43
Time 00:11:23 | Step 3600383 / 633280000 | TPS 5545.94 | ETA 31:32:18
Time 00:11:33 | Step 3660009 / 633280000 | TPS 5962.55 | ETA 29:19:55
Time 00:11:43 | Step 3716752 / 633280000 | TPS 5674.26 | ETA 30:49:10
Time 00:11:53 | Step 3768837 / 633280000 | TPS 5208.42 | ETA 33:34:24
Time 00:12:03 | Step 3823910 / 633280000 | TPS 5507.27 | ETA 31:44:55
Time 00:12:13 | Step 3881402 / 633280000 | TPS 5749.16 | ETA 30:24:36
Time 00:12:23 | Step 3936507 / 633280000 | TPS 5510.43 | ETA 31:43:29
Time 00:12:33 | Step 3993601 / 633280000 | TPS 5709.02 | ETA 30:37:06
Time 00:12:43 | Step 4054436 / 633280000 | TPS 6083.5 | ETA 28:43:51
Time 00:12:53 | Step 4117295 / 633280000 | TPS 6285.89 | ETA 27:48:11
Time 00:13:03 | Step 4177565 / 633280000 | TPS 6026.93 | ETA 28:59:41
Time 00:13:13 | Step 4244011 / 633280000 | TPS 6644.53 | ETA 26:17:49
Time 00:13:23 | Step 4312158 / 633280000 | TPS 6814.7 | ETA 25:38:15
Time 00:13:33 | Step 4376519 / 633280000 | TPS 6436.1 | ETA 27:08:35
Time 00:13:43 | Step 4439015 / 633280000 | TPS 6249.54 | ETA 27:57:01
Time 00:13:53 | Step 4497992 / 633280000 | TPS 5897.68 | ETA 29:36:55
Time 00:14:03 | Step 4557126 / 633280000 | TPS 5913.4 | ETA 29:32:01
Time 00:14:13 | Step 4622632 / 633280000 | TPS 6550.58 | ETA 26:39:29
Time 00:14:23 | Step 4692513 / 633280000 | TPS 6988.08 | ETA 24:59:11
Time 00:14:33 | Step 4761717 / 633280000 | TPS 6920.38 | ETA 25:13:41
Time 00:14:43 | Step 4822123 / 633280000 | TPS 6040.56 | ETA 28:53:59
Time 00:14:53 | Step 4882091 / 633280000 | TPS 5996.59 | ETA 29:06:32
Time 00:15:03 | Step 4952799 / 633280000 | TPS 7070.8 | ETA 24:41:02
Time 00:15:13 | Step 5021359 / 633280000 | TPS 6855.72 | ETA 25:27:20
Time 00:15:23 | Step 5082393 / 633280000 | TPS 6103.35 | ETA 28:35:26
Time 00:15:33 | Step 5142482 / 633280000 | TPS 6008.84 | ETA 29:02:15
Time 00:15:43 | Step 5205845 / 633280000 | TPS 6336.22 | ETA 27:32:04
Time 00:15:53 | Step 5273565 / 633280000 | TPS 6772 | ETA 25:45:35
Time 00:16:03 | Step 5332484 / 633280000 | TPS 5891.75 | ETA 29:36:20
Time 00:16:13 | Step 5381447 / 633280000 | TPS 4896.24 | ETA 35:37:20
Time 00:16:23 | Step 5438630 / 633280000 | TPS 5718.25 | ETA 30:29:56
Time 00:16:33 | Step 5500205 / 633280000 | TPS 6157.45 | ETA 28:19:14
Time 00:16:43 | Step 5561457 / 633280000 | TPS 6125.16 | ETA 28:28:01
Time 00:16:53 | Step 5626491 / 633280000 | TPS 6503.32 | ETA 26:48:32
Time 00:17:03 | Step 5692749 / 633280000 | TPS 6625.74 | ETA 26:18:39
Time 00:17:13 | Step 5755032 / 633280000 | TPS 6228.29 | ETA 27:59:14
Time 00:17:23 | Step 5813788 / 633280000 | TPS 5875.57 | ETA 29:39:52
Time 00:17:33 | Step 5867646 / 633280000 | TPS 5385.76 | ETA 32:21:34
Time 00:17:43 | Step 5912999 / 633280000 | TPS 4535.27 | ETA 38:25:30
Time 00:17:53 | Step 5960735 / 633280000 | TPS 4773.52 | ETA 36:30:16
Time 00:18:03 | Step 6009439 / 633280000 | TPS 4870.36 | ETA 35:46:33
Time 00:18:13 | Step 6061564 / 633280000 | TPS 5212.42 | ETA 33:25:31
Time 00:18:23 | Step 6118655 / 633280000 | TPS 5709.04 | ETA 30:30:54
Time 00:18:33 | Step 6179806 / 633280000 | TPS 6115.06 | ETA 28:29:10
Time 00:18:43 | Step 6237497 / 633280000 | TPS 5769.02 | ETA 30:11:31
Time 00:18:53 | Step 6300298 / 633280000 | TPS 6280.07 | ETA 27:43:56
Time 00:19:03 | Step 6363045 / 633280000 | TPS 6274.68 | ETA 27:45:12
Time 00:19:13 | Step 6423295 / 633280000 | TPS 6024.92 | ETA 28:54:03
Time 00:19:23 | Step 6486431 / 633280000 | TPS 6313.31 | ETA 27:34:41
Time 00:19:33 | Step 6544353 / 633280000 | TPS 5792.18 | ETA 30:03:23
Time 00:19:43 | Step 6607332 / 633280000 | TPS 6297.87 | ETA 27:38:25
Time 00:19:53 | Step 6667051 / 633280000 | TPS 5971.87 | ETA 29:08:47
Time 00:20:03 | Step 6727377 / 633280000 | TPS 6032.57 | ETA 28:51:01
Time 00:20:13 | Step 6786929 / 633280000 | TPS 5955.17 | ETA 29:13:21
Time 00:20:23 | Step 6853348 / 633280000 | TPS 6641.88 | ETA 26:11:54
Time 00:20:33 | Step 6916178 / 633280000 | TPS 6283 | ETA 27:41:31
Time 00:20:43 | Step 6980768 / 633280000 | TPS 6458.95 | ETA 26:56:06
Time 00:20:53 | Step 7048984 / 633280000 | TPS 6821.6 | ETA 25:30:01
Time 00:21:03 | Step 7116587 / 633280000 | TPS 6760.28 | ETA 25:43:43
Time 00:21:13 | Step 7179286 / 633280000 | TPS 6269.81 | ETA 27:44:19
Time 00:21:23 | Step 7236430 / 633280000 | TPS 5714.35 | ETA 30:25:56
Time 00:21:33 | Step 7299313 / 633280000 | TPS 6288.28 | ETA 27:39:07
Time 00:21:43 | Step 7370263 / 633280000 | TPS 7094.94 | ETA 24:30:19
Time 00:21:53 | Step 7440624 / 633280000 | TPS 7036.02 | ETA 24:42:27
Time 00:22:03 | Step 7512521 / 633280000 | TPS 7189.68 | ETA 24:10:36
Time 00:22:13 | Step 7583153 / 633280000 | TPS 7063.16 | ETA 24:36:25
Time 00:22:23 | Step 7656795 / 633280000 | TPS 7364.17 | ETA 23:35:55
Time 00:22:33 | Step 7730342 / 633280000 | TPS 7354.69 | ETA 23:37:34
Time 00:22:43 | Step 7796765 / 633280000 | TPS 6642.23 | ETA 26:09:27
Time 00:22:53 | Step 7867139 / 633280000 | TPS 7037.32 | ETA 24:41:10
Time 00:23:03 | Step 7935806 / 633280000 | TPS 6866.65 | ETA 25:17:49
Time 00:23:13 | Step 8001463 / 633280000 | TPS 6565.68 | ETA 26:27:14
Time 00:23:23 | Step 8070915 / 633280000 | TPS 6945.19 | ETA 25:00:20
Time 00:23:33 | Step 8138543 / 633280000 | TPS 6762.79 | ETA 25:40:38
Time 00:23:43 | Step 8205243 / 633280000 | TPS 6669.94 | ETA 26:01:55
Time 00:23:53 | Step 8273432 / 633280000 | TPS 6818.85 | ETA 25:27:38
Time 00:24:03 | Step 8336046 / 633280000 | TPS 6261.31 | ETA 27:43:30
Time 00:24:13 | Step 8401232 / 633280000 | TPS 6518.55 | ETA 26:37:41
Time 00:24:23 | Step 8464800 / 633280000 | TPS 6356.71 | ETA 27:18:12
Time 00:24:33 | Step 8526713 / 633280000 | TPS 6191.24 | ETA 28:01:49
Time 00:24:43 | Step 8596709 / 633280000 | TPS 6999.6 | ETA 24:47:25
Time 00:24:53 | Step 8671086 / 633280000 | TPS 7437.65 | ETA 23:19:39
Time 00:25:03 | Step 8741247 / 633280000 | TPS 7016.01 | ETA 24:43:36
Time 00:25:13 | Step 8809673 / 633280000 | TPS 6842.57 | ETA 25:21:02
Time 00:25:23 | Step 8880038 / 633280000 | TPS 7036.44 | ETA 24:38:58
Time 00:25:33 | Step 8949243 / 633280000 | TPS 6920.47 | ETA 25:03:35
Time 00:25:43 | Step 9024642 / 633280000 | TPS 7539.9 | ETA 22:59:53
Time 00:25:53 | Step 9095702 / 633280000 | TPS 7105.7 | ETA 24:24:02
Time 00:26:03 | Step 9162967 / 633280000 | TPS 6726.4 | ETA 25:46:26
Time 00:26:13 | Step 9229627 / 633280000 | TPS 6666 | ETA 26:00:16
Time 00:26:23 | Step 9290307 / 633280000 | TPS 6067.93 | ETA 28:33:53
Time 00:26:33 | Step 9355845 / 633280000 | TPS 6553.78 | ETA 26:26:40
Time 00:26:43 | Step 9421932 / 633280000 | TPS 6608.62 | ETA 26:13:20
Time 00:26:53 | Step 9492337 / 633280000 | TPS 7040.34 | ETA 24:36:41
Time 00:27:03 | Step 9557852 / 633280000 | TPS 6551.45 | ETA 26:26:43
Time 00:27:13 | Step 9625470 / 633280000 | TPS 6761.79 | ETA 25:37:12
Time 00:27:23 | Step 9691796 / 633280000 | TPS 6632.53 | ETA 26:06:59
Time 00:27:33 | Step 9759681 / 633280000 | TPS 6788.44 | ETA 25:30:50
Time 00:27:43 | Step 9826181 / 633280000 | TPS 6649.96 | ETA 26:02:33
Time 00:27:53 | Step 9892089 / 633280000 | TPS 6590.78 | ETA 26:16:24
Time 00:28:03 | Step 9961927 / 633280000 | TPS 6983.77 | ETA 24:47:32
Time 00:28:13 | Step 10035239 / 633280000 | TPS 7331.14 | ETA 23:36:53
Time 00:28:23 | Step 10108732 / 633280000 | TPS 7349.24 | ETA 23:33:14
Time 00:28:33 | Step 10180087 / 633280000 | TPS 7135.43 | ETA 24:15:24
Time 00:28:43 | Step 10252397 / 633280000 | TPS 7230.95 | ETA 23:56:01
Time 00:28:53 | Step 10321333 / 633280000 | TPS 6893.6 | ETA 25:06:07
Time 00:29:03 | Step 10391091 / 633280000 | TPS 6975.79 | ETA 24:48:12
Time 00:29:13 | Step 10461225 / 633280000 | TPS 7013.38 | ETA 24:40:04
Time 00:29:23 | Step 10525948 / 633280000 | TPS 6472.23 | ETA 26:43:39
Time 00:29:33 | Step 10595762 / 633280000 | TPS 6981.37 | ETA 24:46:32
Time 00:29:43 | Step 10666179 / 633280000 | TPS 7041.62 | ETA 24:33:39
Time 00:29:53 | Step 10736200 / 633280000 | TPS 7002.04 | ETA 24:41:48
Time 00:30:03 | Step 10805817 / 633280000 | TPS 6961.64 | ETA 24:50:14
Time 00:30:13 | Step 10874125 / 633280000 | TPS 6830.77 | ETA 25:18:38
Time 00:30:23 | Step 10939093 / 633280000 | TPS 6496.73 | ETA 26:36:32
Time 00:30:33 | Step 11008067 / 633280000 | TPS 6897.35 | ETA 25:03:38
Time 00:30:43 | Step 11077032 / 633280000 | TPS 6896.26 | ETA 25:03:43
Time 00:30:53 | Step 11147276 / 633280000 | TPS 7024.35 | ETA 24:36:08
Time 00:31:03 | Step 11215534 / 633280000 | TPS 6825.64 | ETA 25:18:56
Time 00:31:13 | Step 11280889 / 633280000 | TPS 6535.45 | ETA 26:26:13
Time 00:31:23 | Step 11349865 / 633280000 | TPS 6897.53 | ETA 25:02:47
Time 00:31:33 | Step 11415428 / 633280000 | TPS 6556.23 | ETA 26:20:50
Time 00:31:43 | Step 11478818 / 633280000 | TPS 6339 | ETA 27:14:51
Time 00:31:53 | Step 11545443 / 633280000 | TPS 6662.43 | ETA 25:55:19
Time 00:32:03 | Step 11611216 / 633280000 | TPS 6577.25 | ETA 26:15:17
Time 00:32:13 | Step 11671927 / 633280000 | TPS 6071.08 | ETA 28:26:28
Time 00:32:23 | Step 11731750 / 633280000 | TPS 5982.28 | ETA 28:51:38
Time 00:32:33 | Step 11796693 / 633280000 | TPS 6494.22 | ETA 26:34:57
Time 00:32:43 | Step 11860415 / 633280000 | TPS 6372.18 | ETA 27:05:20
Time 00:32:53 | Step 11925126 / 633280000 | TPS 6471.02 | ETA 26:40:21
Time 00:33:03 | Step 11989219 / 633280000 | TPS 6409.22 | ETA 26:55:37
Time 00:33:13 | Step 12049826 / 633280000 | TPS 6060.65 | ETA 28:28:22
Time 00:33:23 | Step 12113791 / 633280000 | TPS 6396.48 | ETA 26:58:30
Time 00:33:33 | Step 12173648 / 633280000 | TPS 5985.69 | ETA 28:49:25
Time 00:33:43 | Step 12235774 / 633280000 | TPS 6212.54 | ETA 27:46:06
Time 00:33:53 | Step 12297303 / 633280000 | TPS 6152.9 | ETA 28:02:05
Time 00:34:03 | Step 12358410 / 633280000 | TPS 6110.64 | ETA 28:13:33
Time 00:34:13 | Step 12420829 / 633280000 | TPS 6241.87 | ETA 27:37:46
Time 00:34:23 | Step 12485397 / 633280000 | TPS 6456.55 | ETA 26:42:29
Time 00:34:33 | Step 12547579 / 633280000 | TPS 6218.13 | ETA 27:43:46
Time 00:34:43 | Step 12617411 / 633280000 | TPS 6983.13 | ETA 24:41:20
Time 00:34:53 | Step 12686493 / 633280000 | TPS 6908.2 | ETA 24:57:14
Time 00:35:03 | Step 12757296 / 633280000 | TPS 7080.11 | ETA 24:20:43
Time 00:35:13 | Step 12816171 / 633280000 | TPS 5887.46 | ETA 29:16:27
Time 00:35:23 | Step 12872775 / 633280000 | TPS 5660.38 | ETA 30:26:45
Time 00:35:33 | Step 12930405 / 633280000 | TPS 5762.93 | ETA 29:54:04
Time 00:35:43 | Step 12993790 / 633280000 | TPS 6338.45 | ETA 27:11:00
Time 00:35:53 | Step 13057221 / 633280000 | TPS 6343.09 | ETA 27:09:39
Time 00:36:03 | Step 13126134 / 633280000 | TPS 6891.1 | ETA 24:59:53
Time 00:36:13 | Step 13191831 / 633280000 | TPS 6569.64 | ETA 26:13:06
Time 00:36:23 | Step 13259429 / 633280000 | TPS 6759.76 | ETA 25:28:42
Time 00:36:33 | Step 13326933 / 633280000 | TPS 6750.17 | ETA 25:30:42
Time 00:36:43 | Step 13386597 / 633280000 | TPS 5966.32 | ETA 28:51:38
Time 00:36:53 | Step 13447140 / 633280000 | TPS 6054.3 | ETA 28:26:18
Time 00:37:03 | Step 13504594 / 633280000 | TPS 5745.33 | ETA 29:57:54
Time 00:37:13 | Step 13562948 / 633280000 | TPS 5835.39 | ETA 29:29:59
Time 00:37:23 | Step 13621650 / 633280000 | TPS 5870.14 | ETA 29:19:21
Time 00:37:33 | Step 13674796 / 633280000 | TPS 5314.59 | ETA 32:23:05
Time 00:37:43 | Step 13726744 / 633280000 | TPS 5194.61 | ETA 33:07:48
Time 00:37:53 | Step 13778165 / 633280000 | TPS 5142.08 | ETA 33:27:56
Time 00:38:03 | Step 13832023 / 633280000 | TPS 5385.76 | ETA 31:56:55
Time 00:38:13 | Step 13886264 / 633280000 | TPS 5423.97 | ETA 31:43:15
Time 00:38:23 | Step 13937719 / 633280000 | TPS 5145.44 | ETA 33:26:07
Time 00:38:33 | Step 13993003 / 633280000 | TPS 5528.32 | ETA 31:07:00
Time 00:38:43 | Step 14046897 / 633280000 | TPS 5389.34 | ETA 31:54:59
Time 00:38:53 | Step 14104948 / 633280000 | TPS 5805.1 | ETA 29:37:40
Time 00:39:03 | Step 14162412 / 633280000 | TPS 5746.35 | ETA 29:55:41
Time 00:39:13 | Step 14216166 / 633280000 | TPS 5375.23 | ETA 31:59:29
Time 00:39:23 | Step 14270957 / 633280000 | TPS 5479.04 | ETA 31:22:57
Time 00:39:33 | Step 14324716 / 633280000 | TPS 5375.87 | ETA 31:58:55
Time 00:39:43 | Step 14374458 / 633280000 | TPS 4974.13 | ETA 34:33:44
Time 00:39:53 | Step 14429878 / 633280000 | TPS 5541.93 | ETA 31:01:06
Time 00:40:03 | Step 14484167 / 633280000 | TPS 5428.87 | ETA 31:39:42
Time 00:40:13 | Step 14538596 / 633280000 | TPS 5442.8 | ETA 31:34:40
Time 00:40:23 | Step 14588659 / 633280000 | TPS 5006.29 | ETA 34:19:42
Time 00:40:33 | Step 14636637 / 633280000 | TPS 4797.72 | ETA 35:49:05
Time 00:40:43 | Step 14682304 / 633280000 | TPS 4566.68 | ETA 37:37:39
Time 00:40:53 | Step 14731175 / 633280000 | TPS 4887.08 | ETA 35:09:28
Time 00:41:03 | Step 14783468 / 633280000 | TPS 5229.04 | ETA 32:51:21
Time 00:41:13 | Step 14832862 / 633280000 | TPS 4939.32 | ETA 34:46:48
Time 00:41:23 | Step 14882275 / 633280000 | TPS 4941.3 | ETA 34:45:48
Time 00:41:33 | Step 14929673 / 633280000 | TPS 4739.43 | ETA 36:14:29
Time 00:41:43 | Step 14981835 / 633280000 | TPS 5216.12 | ETA 32:55:36
Time 00:41:53 | Step 15034916 / 633280000 | TPS 5308.09 | ETA 32:21:12
Time 00:42:03 | Step 15088358 / 633280000 | TPS 5344.15 | ETA 32:07:56
Time 00:42:13 | Step 15143293 / 633280000 | TPS 5493.42 | ETA 31:15:23
Time 00:42:23 | Step 15200453 / 633280000 | TPS 5715.94 | ETA 30:02:12
Time 00:42:33 | Step 15256395 / 633280000 | TPS 5594.14 | ETA 30:41:16
Time 00:42:43 | Step 15313201 / 633280000 | TPS 5680.21 | ETA 30:13:12
Time 00:42:53 | Step 15369867 / 633280000 | TPS 5666.58 | ETA 30:17:24
Time 00:43:03 | Step 15425272 / 633280000 | TPS 5540.45 | ETA 30:58:37
Time 00:43:13 | Step 15483580 / 633280000 | TPS 5830.72 | ETA 29:25:55
Time 00:43:23 | Step 15542780 / 633280000 | TPS 5919.94 | ETA 28:59:08
Time 00:43:33 | Step 15599943 / 633280000 | TPS 5716.25 | ETA 30:00:56
Time 00:43:43 | Step 15661305 / 633280000 | TPS 6136.17 | ETA 27:57:32
Time 00:43:53 | Step 15715134 / 633280000 | TPS 5382.83 | ETA 31:52:08
Time 00:44:03 | Step 15767060 / 633280000 | TPS 5192.58 | ETA 33:02:02
Time 00:44:13 | Step 15822211 / 633280000 | TPS 5515.07 | ETA 31:05:58
Time 00:44:23 | Step 15878630 / 633280000 | TPS 5641.83 | ETA 30:23:52
Time 00:44:33 | Step 15937590 / 633280000 | TPS 5895.93 | ETA 29:05:06
Time 00:44:43 | Step 16000869 / 633280000 | TPS 6327.83 | ETA 27:05:49
Time 00:44:53 | Step 16058806 / 633280000 | TPS 5793.58 | ETA 29:35:35
Time 00:45:03 | Step 16116760 / 633280000 | TPS 5795.33 | ETA 29:34:53
Time 00:45:13 | Step 16174030 / 633280000 | TPS 5726.92 | ETA 29:55:55
Time 00:45:23 | Step 16234931 / 633280000 | TPS 6090.03 | ETA 28:08:40
Time 00:45:33 | Step 16294667 / 633280000 | TPS 5973.56 | ETA 28:41:25
Time 00:45:43 | Step 16355919 / 633280000 | TPS 6125.16 | ETA 27:58:39
Time 00:45:53 | Step 16419432 / 633280000 | TPS 6351.15 | ETA 26:58:45
Time 00:46:03 | Step 16483034 / 633280000 | TPS 6359.86 | ETA 26:56:22
Time 00:46:13 | Step 16548491 / 633280000 | TPS 6545.66 | ETA 26:10:19
Time 00:46:23 | Step 16615712 / 633280000 | TPS 6722.08 | ETA 25:28:57
Time 00:46:33 | Step 16680579 / 633280000 | TPS 6486.64 | ETA 26:24:16
Time 00:46:43 | Step 16745096 / 633280000 | TPS 6451.69 | ETA 26:32:41
Time 00:46:53 | Step 16810166 / 633280000 | TPS 6506.99 | ETA 26:18:59
Time 00:47:03 | Step 16872001 / 633280000 | TPS 6183.29 | ETA 27:41:29
Time 00:47:13 | Step 16935382 / 633280000 | TPS 6338.1 | ETA 27:00:44
Time 00:47:23 | Step 16995423 / 633280000 | TPS 6004.01 | ETA 28:30:45
Time 00:47:33 | Step 17050509 / 633280000 | TPS 5508.53 | ETA 31:04:28
Time 00:47:43 | Step 17103998 / 633280000 | TPS 5348.87 | ETA 31:59:57
Time 00:47:53 | Step 17154640 / 633280000 | TPS 5064.11 | ETA 33:47:44
Time 00:48:03 | Step 17211699 / 633280000 | TPS 5705.88 | ETA 29:59:30
Time 00:48:13 | Step 17269945 / 633280000 | TPS 5824.56 | ETA 29:22:40
Time 00:48:23 | Step 17325386 / 633280000 | TPS 5544.09 | ETA 30:51:41
Time 00:48:33 | Step 17389859 / 633280000 | TPS 6447.11 | ETA 26:32:09
Time 00:48:43 | Step 17448493 / 633280000 | TPS 5863.36 | ETA 29:10:30
Time 00:48:53 | Step 17507633 / 633280000 | TPS 5913.96 | ETA 28:55:21
Time 00:49:03 | Step 17563879 / 633280000 | TPS 5624.59 | ETA 30:24:28
Time 00:49:13 | Step 17626378 / 633280000 | TPS 6249.83 | ETA 27:21:47
Time 00:49:23 | Step 17684095 / 633280000 | TPS 5771.31 | ETA 29:37:44
Time 00:49:33 | Step 17746675 / 633280000 | TPS 6257.92 | ETA 27:19:20
Time 00:49:43 | Step 17806032 / 633280000 | TPS 5935.67 | ETA 28:48:10
Time 00:49:53 | Step 17861729 / 633280000 | TPS 5569.65 | ETA 30:41:35
Time 00:50:03 | Step 17920996 / 633280000 | TPS 5926.61 | ETA 28:50:29
Time 00:50:13 | Step 17980584 / 633280000 | TPS 5958.75 | ETA 28:40:59
Time 00:50:23 | Step 18038890 / 633280000 | TPS 5830.54 | ETA 29:18:40
Time 00:50:33 | Step 18098656 / 633280000 | TPS 5976.51 | ETA 28:35:33
Time 00:50:43 | Step 18155788 / 633280000 | TPS 5713.17 | ETA 29:54:27
Time 00:50:53 | Step 18220927 / 633280000 | TPS 6513.83 | ETA 26:13:43
Time 00:51:03 | Step 18282711 / 633280000 | TPS 6178.36 | ETA 27:39:00
Time 00:51:13 | Step 18341613 / 633280000 | TPS 5890.08 | ETA 29:00:02
Time 00:51:23 | Step 18401764 / 633280000 | TPS 6015.02 | ETA 28:23:43
Time 00:51:33 | Step 18464749 / 633280000 | TPS 6298.42 | ETA 27:06:54
Time 00:51:43 | Step 18529658 / 633280000 | TPS 6490.74 | ETA 26:18:31
Time 00:51:53 | Step 18589315 / 633280000 | TPS 5965.65 | ETA 28:37:18
Time 00:52:03 | Step 18651163 / 633280000 | TPS 6184.73 | ETA 27:36:18
Time 00:52:13 | Step 18714278 / 633280000 | TPS 6311.48 | ETA 27:02:52
Time 00:52:23 | Step 18774955 / 633280000 | TPS 6067.62 | ETA 28:07:56
Time 00:52:33 | Step 18840330 / 633280000 | TPS 6537.46 | ETA 26:06:27
Time 00:52:43 | Step 18906651 / 633280000 | TPS 6632.09 | ETA 25:43:56
Time 00:52:53 | Step 18973067 / 633280000 | TPS 6641.32 | ETA 25:41:37
Time 00:53:03 | Step 19038554 / 633280000 | TPS 6548.65 | ETA 26:03:16
Time 00:53:13 | Step 19106558 / 633280000 | TPS 6800.37 | ETA 25:05:14
Time 00:53:23 | Step 19175234 / 633280000 | TPS 6867.52 | ETA 24:50:21
Time 00:53:33 | Step 19243632 / 633280000 | TPS 6839.79 | ETA 24:56:14
Time 00:53:43 | Step 19312211 / 633280000 | TPS 6857.86 | ETA 24:52:07
Time 00:53:53 | Step 19383253 / 633280000 | TPS 7104.17 | ETA 24:00:13
Time 00:54:03 | Step 19443672 / 633280000 | TPS 6041.81 | ETA 28:13:18
Time 00:54:13 | Step 19495189 / 633280000 | TPS 5151.62 | ETA 33:05:43
Time 00:54:23 | Step 19551320 / 633280000 | TPS 5613.06 | ETA 30:22:19
Time 00:54:33 | Step 19610188 / 633280000 | TPS 5886.72 | ETA 28:57:26
Time 00:54:43 | Step 19662672 / 633280000 | TPS 5248.22 | ETA 32:28:39
Time 00:54:53 | Step 19713296 / 633280000 | TPS 5062.33 | ETA 33:40:02
Time 00:55:03 | Step 19762663 / 633280000 | TPS 4936.63 | ETA 34:31:18
Time 00:55:13 | Step 19816889 / 633280000 | TPS 5422.55 | ETA 31:25:31
Time 00:55:23 | Step 19872068 / 633280000 | TPS 5517.87 | ETA 30:52:47
Time 00:55:33 | Step 19926277 / 633280000 | TPS 5420.88 | ETA 31:25:46
Time 00:55:43 | Step 19983252 / 633280000 | TPS 5697.48 | ETA 29:54:03
Time 00:55:53 | Step 20040587 / 633280000 | TPS 5733.46 | ETA 29:42:37
Time 00:56:03 | Step 20100524 / 633280000 | TPS 5993.61 | ETA 28:25:05
Time 00:56:13 | Step 20160096 / 633280000 | TPS 5957.05 | ETA 28:35:23
Time 00:56:23 | Step 20219232 / 633280000 | TPS 5913.55 | ETA 28:47:50
Time 00:56:33 | Step 20275101 / 633280000 | TPS 5586.84 | ETA 30:28:43
Time 00:56:43 | Step 20332495 / 633280000 | TPS 5739.38 | ETA 29:39:56
Time 00:56:53 | Step 20387743 / 633280000 | TPS 5524.74 | ETA 30:48:56
Time 00:57:03 | Step 20440993 / 633280000 | TPS 5324.99 | ETA 31:58:07
Time 00:57:13 | Step 20502799 / 633280000 | TPS 6180.57 | ETA 27:32:25
Time 00:57:23 | Step 20558941 / 633280000 | TPS 5614.14 | ETA 30:18:58
Time 00:57:33 | Step 20612994 / 633280000 | TPS 5405.23 | ETA 31:29:07
Time 00:57:43 | Step 20668534 / 633280000 | TPS 5553.94 | ETA 30:38:22
Time 00:57:53 | Step 20725001 / 633280000 | TPS 5646.63 | ETA 30:08:01
Time 00:58:03 | Step 20777538 / 633280000 | TPS 5253.64 | ETA 32:23:06
Time 00:58:13 | Step 20827278 / 633280000 | TPS 4973.95 | ETA 34:12:12
Time 00:58:23 | Step 20879295 / 633280000 | TPS 5201.64 | ETA 32:42:12
Time 00:58:33 | Step 20936397 / 633280000 | TPS 5710.12 | ETA 29:47:18
Time 00:58:43 | Step 20993826 / 633280000 | TPS 5742.86 | ETA 29:36:56
Time 00:58:53 | Step 21053276 / 633280000 | TPS 5944.98 | ETA 28:36:22
Time 00:59:03 | Step 21107476 / 633280000 | TPS 5419.92 | ETA 31:22:28
Time 00:59:13 | Step 21164182 / 633280000 | TPS 5670.54 | ETA 29:59:06
Time 00:59:23 | Step 21216408 / 633280000 | TPS 5222.52 | ETA 32:33:16
Time 00:59:33 | Step 21274196 / 633280000 | TPS 5778.79 | ETA 29:25:05
Time 00:59:43 | Step 21329796 / 633280000 | TPS 5559.89 | ETA 30:34:25
Time 00:59:53 | Step 21387790 / 633280000 | TPS 5799.35 | ETA 29:18:30
Time 01:00:03 | Step 21442699 / 633280000 | TPS 5490.88 | ETA 30:57:07
Time 01:00:13 | Step 21496188 / 633280000 | TPS 5348.85 | ETA 31:46:16
Time 01:00:23 | Step 21547798 / 633280000 | TPS 5160.79 | ETA 32:55:34
Time 01:00:33 | Step 21600998 / 633280000 | TPS 5319.93 | ETA 31:56:18
Time 01:00:43 | Step 21648968 / 633280000 | TPS 4796.69 | ETA 35:25:10
Time 01:00:53 | Step 21698798 / 633280000 | TPS 4982.94 | ETA 34:05:35
Time 01:01:03 | Step 21752802 / 633280000 | TPS 5400.32 | ETA 31:27:18
Time 01:01:13 | Step 21810223 / 633280000 | TPS 5742.05 | ETA 29:34:49
Time 01:01:23 | Step 21868392 / 633280000 | TPS 5816.78 | ETA 29:11:51
Time 01:01:33 | Step 21927704 / 633280000 | TPS 5930.8 | ETA 28:38:00
Time 01:01:43 | Step 21981256 / 633280000 | TPS 5355.01 | ETA 31:42:34
Time 01:01:53 | Step 22038140 / 633280000 | TPS 5688.31 | ETA 29:50:55
Time 01:02:03 | Step 22094040 / 633280000 | TPS 5589.96 | ETA 30:22:16
Time 01:02:13 | Step 22147540 / 633280000 | TPS 5349.93 | ETA 31:43:51
Time 01:02:23 | Step 22205513 / 633280000 | TPS 5797.27 | ETA 29:16:47
Time 01:02:33 | Step 22257403 / 633280000 | TPS 5188.9 | ETA 32:42:35
Time 01:02:43 | Step 22312481 / 633280000 | TPS 5507.76 | ETA 30:48:48
Time 01:02:53 | Step 22368266 / 633280000 | TPS 5578.49 | ETA 30:25:12
Time 01:03:03 | Step 22422993 / 633280000 | TPS 5472.62 | ETA 31:00:20
Time 01:03:13 | Step 22482302 / 633280000 | TPS 5930.89 | ETA 28:36:25
Time 01:03:23 | Step 22539236 / 633280000 | TPS 5693.34 | ETA 29:47:52
Time 01:03:33 | Step 22595128 / 633280000 | TPS 5589.16 | ETA 30:21:02
Time 01:03:43 | Step 22651568 / 633280000 | TPS 5643.94 | ETA 30:03:11
Time 01:03:53 | Step 22713812 / 633280000 | TPS 6224.37 | ETA 27:14:52
Time 01:04:03 | Step 22773396 / 633280000 | TPS 5958.36 | ETA 28:27:42
Time 01:04:13 | Step 22835533 / 633280000 | TPS 6213.7 | ETA 27:17:21
Time 01:04:23 | Step 22903221 / 633280000 | TPS 6768.75 | ETA 25:02:55
Time 01:04:33 | Step 22960202 / 633280000 | TPS 5698.01 | ETA 29:45:11
Time 01:04:43 | Step 23015110 / 633280000 | TPS 5490.79 | ETA 30:52:23
Time 01:04:53 | Step 23076234 / 633280000 | TPS 6112.39 | ETA 27:43:50
Time 01:05:03 | Step 23138769 / 633280000 | TPS 6253.42 | ETA 27:06:09
Time 01:05:13 | Step 23201701 / 633280000 | TPS 6292.85 | ETA 26:55:47
Time 01:05:23 | Step 23266153 / 633280000 | TPS 6445.15 | ETA 26:17:26
Time 01:05:33 | Step 23326951 / 633280000 | TPS 6079.75 | ETA 27:52:05
Time 01:05:43 | Step 23392922 / 633280000 | TPS 6597.09 | ETA 25:40:47
Time 01:05:53 | Step 23456585 / 633280000 | TPS 6366.24 | ETA 26:36:30
Time 01:06:03 | Step 23516271 / 633280000 | TPS 5968.57 | ETA 28:22:42
Time 01:06:13 | Step 23578792 / 633280000 | TPS 6252.04 | ETA 27:05:20
Time 01:06:23 | Step 23634574 / 633280000 | TPS 5578.15 | ETA 30:21:31
Time 01:06:33 | Step 23693296 / 633280000 | TPS 5872.16 | ETA 28:50:09
Time 01:06:43 | Step 23750388 / 633280000 | TPS 5709.14 | ETA 29:39:23
Time 01:06:53 | Step 23809276 / 633280000 | TPS 5888.77 | ETA 28:44:57
Time 01:07:03 | Step 23867198 / 633280000 | TPS 5792.2 | ETA 29:13:32
Time 01:07:13 | Step 23921281 / 633280000 | TPS 5408.27 | ETA 31:17:51
Time 01:07:23 | Step 23978429 / 633280000 | TPS 5714.76 | ETA 29:36:58
Time 01:07:33 | Step 24042012 / 633280000 | TPS 6358.25 | ETA 26:36:58
Time 01:07:43 | Step 24104000 / 633280000 | TPS 6198.73 | ETA 27:17:54
Time 01:07:53 | Step 24160398 / 633280000 | TPS 5639.72 | ETA 30:00:05
Time 01:08:03 | Step 24218992 / 633280000 | TPS 5859.39 | ETA 28:52:26
Time 01:08:13 | Step 24275290 / 633280000 | TPS 5629.8 | ETA 30:02:55
Time 01:08:23 | Step 24331794 / 633280000 | TPS 5650.19 | ETA 29:56:14
Time 01:08:33 | Step 24388336 / 633280000 | TPS 5654.14 | ETA 29:54:49
Time 01:08:43 | Step 24438596 / 633280000 | TPS 5025.95 | ETA 33:38:59
Time 01:08:53 | Step 24488899 / 633280000 | TPS 5030.22 | ETA 33:37:06
Time 01:09:03 | Step 24538132 / 633280000 | TPS 4923.25 | ETA 34:20:46
Time 01:09:13 | Step 24588297 / 633280000 | TPS 5016.46 | ETA 33:42:18
Time 01:09:23 | Step 24637348 / 633280000 | TPS 4905.06 | ETA 34:28:04
Time 01:09:33 | Step 24690305 / 633280000 | TPS 5295.64 | ETA 31:55:22
Time 01:09:43 | Step 24742908 / 633280000 | TPS 5260.25 | ETA 32:08:05
Time 01:09:53 | Step 24794752 / 633280000 | TPS 5184.35 | ETA 32:36:09
Time 01:10:03 | Step 24855114 / 633280000 | TPS 6036.14 | ETA 27:59:57
Time 01:10:13 | Step 24914557 / 633280000 | TPS 5944.27 | ETA 28:25:44
Time 01:10:23 | Step 24975267 / 633280000 | TPS 6070.95 | ETA 27:49:59
Time 01:10:33 | Step 25039038 / 633280000 | TPS 6377.05 | ETA 26:29:39
Time 01:10:43 | Step 25097992 / 633280000 | TPS 5895.37 | ETA 28:39:22
Time 01:10:53 | Step 25158870 / 633280000 | TPS 6087.76 | ETA 27:44:52
Time 01:11:03 | Step 25215135 / 633280000 | TPS 5626.3 | ETA 30:01:15
Time 01:11:13 | Step 25265276 / 633280000 | TPS 5014.1 | ETA 33:41:01
Time 01:11:23 | Step 25325084 / 633280000 | TPS 5980.79 | ETA 28:14:11
Time 01:11:33 | Step 25379224 / 633280000 | TPS 5413.96 | ETA 31:11:23
Time 01:11:43 | Step 25432190 / 633280000 | TPS 5296.58 | ETA 31:52:42
Time 01:11:53 | Step 25489724 / 633280000 | TPS 5753.34 | ETA 29:20:41
Time 01:12:03 | Step 25540847 / 633280000 | TPS 5112.23 | ETA 33:01:19
Time 01:12:13 | Step 25598406 / 633280000 | TPS 5755.9 | ETA 29:19:35
Time 01:12:23 | Step 25661098 / 633280000 | TPS 6269.15 | ETA 26:55:22
Time 01:12:33 | Step 25717558 / 633280000 | TPS 5645.97 | ETA 29:53:29
Time 01:12:43 | Step 25777772 / 633280000 | TPS 6021.35 | ETA 28:01:31
Time 01:12:53 | Step 25835858 / 633280000 | TPS 5808.54 | ETA 29:02:57
Time 01:13:03 | Step 25889221 / 633280000 | TPS 5336.23 | ETA 31:37:03
Time 01:13:13 | Step 25945473 / 633280000 | TPS 5625.15 | ETA 29:59:27
Time 01:13:23 | Step 26001481 / 633280000 | TPS 5600.78 | ETA 30:07:07
Time 01:13:33 | Step 26059923 / 633280000 | TPS 5844.2 | ETA 28:51:41
Time 01:13:43 | Step 26120822 / 633280000 | TPS 6089.64 | ETA 27:41:43
Time 01:13:53 | Step 26180854 / 633280000 | TPS 6003.06 | ETA 28:05:31
Time 01:14:03 | Step 26245984 / 633280000 | TPS 6512.92 | ETA 25:53:24
Time 01:14:13 | Step 26304857 / 633280000 | TPS 5887.24 | ETA 28:38:20
Time 01:14:23 | Step 26356855 / 633280000 | TPS 5199.74 | ETA 32:25:21
Time 01:14:33 | Step 26408862 / 633280000 | TPS 5200.64 | ETA 32:24:51
Time 01:14:43 | Step 26466511 / 633280000 | TPS 5764.83 | ETA 29:14:21
Time 01:14:53 | Step 26519605 / 633280000 | TPS 5309.36 | ETA 31:44:41
Time 01:15:03 | Step 26576268 / 633280000 | TPS 5666.26 | ETA 29:44:33
Time 01:15:13 | Step 26637807 / 633280000 | TPS 6153.87 | ETA 27:22:58
Time 01:15:23 | Step 26702908 / 633280000 | TPS 6510.07 | ETA 25:52:55
Time 01:15:33 | Step 26760527 / 633280000 | TPS 5761.82 | ETA 29:14:25
Time 01:15:43 | Step 26816536 / 633280000 | TPS 5600.88 | ETA 30:04:39
Time 01:15:53 | Step 26871589 / 633280000 | TPS 5505.25 | ETA 30:35:50
Time 01:16:03 | Step 26928736 / 633280000 | TPS 5714.64 | ETA 29:28:24
Time 01:16:13 | Step 26982301 / 633280000 | TPS 5356.46 | ETA 31:26:30
Time 01:16:23 | Step 27036578 / 633280000 | TPS 5427.43 | ETA 31:01:39
Time 01:16:33 | Step 27096916 / 633280000 | TPS 6033.73 | ETA 27:54:25
Time 01:16:43 | Step 27166687 / 633280000 | TPS 6977.03 | ETA 24:07:52
Time 01:16:53 | Step 27231743 / 633280000 | TPS 6505.54 | ETA 25:52:38
Time 01:17:03 | Step 27288466 / 633280000 | TPS 5672.3 | ETA 29:40:33
Time 01:17:13 | Step 27343533 / 633280000 | TPS 5506.69 | ETA 30:33:56
Time 01:17:23 | Step 27400801 / 633280000 | TPS 5726.63 | ETA 29:23:20
Time 01:17:33 | Step 27458885 / 633280000 | TPS 5808.39 | ETA 28:58:21
Time 01:17:43 | Step 27522635 / 633280000 | TPS 6374.58 | ETA 26:23:46
Time 01:17:53 | Step 27579685 / 633280000 | TPS 5704.94 | ETA 29:29:31
Time 01:18:03 | Step 27634325 / 633280000 | TPS 5463.77 | ETA 30:47:27
Time 01:18:13 | Step 27692705 / 633280000 | TPS 5837.98 | ETA 28:48:52
Time 01:18:23 | Step 27750403 / 633280000 | TPS 5769.76 | ETA 29:09:08
Time 01:18:33 | Step 27808202 / 633280000 | TPS 5779.66 | ETA 29:05:59
Time 01:18:43 | Step 27868441 / 633280000 | TPS 6023.85 | ETA 27:55:02
Time 01:18:53 | Step 27924498 / 633280000 | TPS 5605.65 | ETA 29:59:50
Time 01:19:03 | Step 27978335 / 633280000 | TPS 5383.6 | ETA 31:13:54
Time 01:19:13 | Step 28038936 / 633280000 | TPS 6060.04 | ETA 27:44:34
Time 01:19:23 | Step 28100222 / 633280000 | TPS 6128.57 | ETA 27:25:47
Time 01:19:33 | Step 28160561 / 633280000 | TPS 6033.86 | ETA 27:51:27
Time 01:19:43 | Step 28225361 / 633280000 | TPS 6479.92 | ETA 25:56:13
Time 01:19:53 | Step 28287581 / 633280000 | TPS 6221.83 | ETA 27:00:37
Time 01:20:03 | Step 28344333 / 633280000 | TPS 5675 | ETA 29:36:36
Time 01:20:13 | Step 28404987 / 633280000 | TPS 6065.38 | ETA 27:42:05
Time 01:20:23 | Step 28462266 / 633280000 | TPS 5727.55 | ETA 29:19:58
Time 01:20:33 | Step 28519778 / 633280000 | TPS 5751.18 | ETA 29:12:34
Time 01:20:43 | Step 28580441 / 633280000 | TPS 6066.21 | ETA 27:41:23
Time 01:20:53 | Step 28638990 / 633280000 | TPS 5854.84 | ETA 28:41:11
Time 01:21:03 | Step 28700769 / 633280000 | TPS 6177.84 | ETA 27:11:02
Time 01:21:13 | Step 28759819 / 633280000 | TPS 5904.95 | ETA 28:26:15
Time 01:21:23 | Step 28817465 / 633280000 | TPS 5764.56 | ETA 29:07:38
Time 01:21:33 | Step 28874204 / 633280000 | TPS 5673.85 | ETA 29:35:24
Time 01:21:43 | Step 28929972 / 633280000 | TPS 5576.69 | ETA 30:06:10
Time 01:21:53 | Step 28986100 / 633280000 | TPS 5612.74 | ETA 29:54:24
Time 01:22:03 | Step 29044681 / 633280000 | TPS 5858.06 | ETA 28:39:05
Time 01:22:13 | Step 29098580 / 633280000 | TPS 5389.85 | ETA 31:08:16
Time 01:22:23 | Step 29146190 / 633280000 | TPS 4760.73 | ETA 35:14:59
Time 01:22:33 | Step 29197443 / 633280000 | TPS 5125.3 | ETA 32:44:22
Time 01:22:43 | Step 29249849 / 633280000 | TPS 5240.56 | ETA 32:01:00
Time 01:22:53 | Step 29304736 / 633280000 | TPS 5488.68 | ETA 30:34:00
Time 01:23:03 | Step 29360031 / 633280000 | TPS 5529.26 | ETA 30:20:22
Time 01:23:13 | Step 29419835 / 633280000 | TPS 5980.39 | ETA 28:02:53
Time 01:23:23 | Step 29484315 / 633280000 | TPS 6447.93 | ETA 26:00:41
Time 01:23:33 | Step 29545034 / 633280000 | TPS 6071.89 | ETA 27:37:11
Time 01:23:43 | Step 29603166 / 633280000 | TPS 5813.17 | ETA 28:50:46
Time 01:23:53 | Step 29663416 / 633280000 | TPS 6024.98 | ETA 27:49:45
Time 01:24:03 | Step 29724913 / 633280000 | TPS 6149.69 | ETA 27:15:44
Time 01:24:13 | Step 29781381 / 633280000 | TPS 5646.8 | ETA 29:41:14
Time 01:24:23 | Step 29838818 / 633280000 | TPS 5743.63 | ETA 29:11:02
Time 01:24:33 | Step 29896478 / 633280000 | TPS 5765.98 | ETA 29:04:05
Time 01:24:43 | Step 29961526 / 633280000 | TPS 6504.79 | ETA 25:45:49
Time 01:24:53 | Step 30025666 / 633280000 | TPS 6413.77 | ETA 26:07:36
Time 01:25:03 | Step 30085096 / 633280000 | TPS 5942.94 | ETA 28:11:37
Time 01:25:13 | Step 30145378 / 633280000 | TPS 6028.19 | ETA 27:47:32
Time 01:25:23 | Step 30212486 / 633280000 | TPS 6710.78 | ETA 24:57:45
Time 01:25:33 | Step 30279010 / 633280000 | TPS 6652.34 | ETA 25:10:44
Time 01:25:43 | Step 30343715 / 633280000 | TPS 6470.46 | ETA 25:53:02
Time 01:25:53 | Step 30411563 / 633280000 | TPS 6784.55 | ETA 24:40:59
Time 01:26:03 | Step 30475838 / 633280000 | TPS 6427.42 | ETA 26:03:06
Time 01:26:13 | Step 30536625 / 633280000 | TPS 6078.52 | ETA 27:32:39
Time 01:26:23 | Step 30595566 / 633280000 | TPS 5894.06 | ETA 28:24:12
Time 01:26:33 | Step 30656645 / 633280000 | TPS 6107.86 | ETA 27:24:23
Time 01:26:43 | Step 30719101 / 633280000 | TPS 6245.31 | ETA 26:48:02
Time 01:26:53 | Step 30783601 / 633280000 | TPS 6449.89 | ETA 25:56:51
Time 01:27:03 | Step 30848033 / 633280000 | TPS 6443.19 | ETA 25:58:19
Time 01:27:13 | Step 30910999 / 633280000 | TPS 6296.55 | ETA 26:34:26
Time 01:27:23 | Step 30970370 / 633280000 | TPS 5937 | ETA 28:10:50
Time 01:27:33 | Step 31036528 / 633280000 | TPS 6615.7 | ETA 25:17:12
Time 01:27:43 | Step 31093736 / 633280000 | TPS 5720.71 | ETA 29:14:24
Time 01:27:53 | Step 31149937 / 633280000 | TPS 5620.05 | ETA 29:45:39
Time 01:28:03 | Step 31209144 / 633280000 | TPS 5920.62 | ETA 28:14:50
Time 01:28:13 | Step 31274365 / 633280000 | TPS 6522.07 | ETA 25:38:22
Time 01:28:23 | Step 31343773 / 633280000 | TPS 6940.57 | ETA 24:05:27
Time 01:28:33 | Step 31411359 / 633280000 | TPS 6758.54 | ETA 24:44:13
Time 01:28:43 | Step 31478097 / 633280000 | TPS 6673.64 | ETA 25:02:55
Time 01:28:53 | Step 31544235 / 633280000 | TPS 6613.79 | ETA 25:16:21
Time 01:29:03 | Step 31607688 / 633280000 | TPS 6345.22 | ETA 26:20:22
Time 01:29:13 | Step 31672286 / 633280000 | TPS 6459.76 | ETA 25:52:11
Time 01:29:23 | Step 31737219 / 633280000 | TPS 6493.23 | ETA 25:44:01
Time 01:29:33 | Step 31798532 / 633280000 | TPS 6131.29 | ETA 27:15:00
Time 01:29:43 | Step 31860666 / 633280000 | TPS 6213.21 | ETA 26:53:16
Time 01:29:53 | Step 31919164 / 633280000 | TPS 5849.8 | ETA 28:33:20
Time 01:30:03 | Step 31977677 / 633280000 | TPS 5851.27 | ETA 28:32:44
Time 01:30:13 | Step 32038538 / 633280000 | TPS 6086.02 | ETA 27:26:30
Time 01:30:23 | Step 32098967 / 633280000 | TPS 6042.9 | ETA 27:38:05
Time 01:30:33 | Step 32161341 / 633280000 | TPS 6237.33 | ETA 26:46:14
Time 01:30:43 | Step 32222101 / 633280000 | TPS 6075.85 | ETA 27:28:45
Time 01:30:53 | Step 32288359 / 633280000 | TPS 6625.8 | ETA 25:11:44
Time 01:31:03 | Step 32352336 / 633280000 | TPS 6397.62 | ETA 26:05:29
Time 01:31:13 | Step 32420016 / 633280000 | TPS 6767.95 | ETA 24:39:40
Time 01:31:23 | Step 32488604 / 633280000 | TPS 6858.64 | ETA 24:19:56
Time 01:31:33 | Step 32560905 / 633280000 | TPS 7230.09 | ETA 23:04:45
Time 01:31:43 | Step 32630450 / 633280000 | TPS 6954.5 | ETA 23:59:28
Time 01:31:53 | Step 32691034 / 633280000 | TPS 6058.32 | ETA 27:32:14
Time 01:32:03 | Step 32756796 / 633280000 | TPS 6576.15 | ETA 25:21:58
Time 01:32:13 | Step 32820521 / 633280000 | TPS 6372.45 | ETA 26:10:27
Time 01:32:23 | Step 32878533 / 633280000 | TPS 5801.02 | ETA 28:44:59
Time 01:32:33 | Step 32938711 / 633280000 | TPS 6017.75 | ETA 27:42:41
Time 01:32:43 | Step 32999771 / 633280000 | TPS 6105.97 | ETA 27:18:30
Time 01:32:53 | Step 33061412 / 633280000 | TPS 6164 | ETA 27:02:54
Time 01:33:03 | Step 33122370 / 633280000 | TPS 6095.78 | ETA 27:20:54
Time 01:33:13 | Step 33178050 / 633280000 | TPS 5567.94 | ETA 29:56:18
Time 01:33:23 | Step 33237406 / 633280000 | TPS 5935.57 | ETA 28:04:52
Time 01:33:33 | Step 33295432 / 633280000 | TPS 5802.6 | ETA 28:43:19
Time 01:33:43 | Step 33348967 / 633280000 | TPS 5353.46 | ETA 31:07:44
Time 01:33:53 | Step 33413612 / 633280000 | TPS 6464.46 | ETA 25:46:34
Time 01:34:03 | Step 33478459 / 633280000 | TPS 6484.68 | ETA 25:41:35
Time 01:34:13 | Step 33537758 / 633280000 | TPS 5929.87 | ETA 28:05:39
Time 01:34:23 | Step 33593399 / 633280000 | TPS 5564.09 | ETA 29:56:17
Time 01:34:33 | Step 33647428 / 633280000 | TPS 5402.85 | ETA 30:49:44
Time 01:34:43 | Step 33706949 / 633280000 | TPS 5952.05 | ETA 27:58:53
Time 01:34:53 | Step 33767082 / 633280000 | TPS 6013.23 | ETA 27:41:38
Time 01:35:03 | Step 33824352 / 633280000 | TPS 5726.98 | ETA 29:04:32
Time 01:35:13 | Step 33879179 / 633280000 | TPS 5482.7 | ETA 30:22:05
Time 01:35:23 | Step 33934228 / 633280000 | TPS 5504.84 | ETA 30:14:36
Time 01:35:33 | Step 33992802 / 633280000 | TPS 5857.38 | ETA 28:25:13
Time 01:35:43 | Step 34048340 / 633280000 | TPS 5553.76 | ETA 29:58:16
Time 01:35:53 | Step 34110714 / 633280000 | TPS 6237.34 | ETA 26:41:01
Time 01:36:03 | Step 34174419 / 633280000 | TPS 6370.49 | ETA 26:07:23
Time 01:36:13 | Step 34232799 / 633280000 | TPS 5837.92 | ETA 28:30:13
Time 01:36:23 | Step 34286864 / 633280000 | TPS 5406.41 | ETA 30:46:33
Time 01:36:33 | Step 34337351 / 633280000 | TPS 5048.61 | ETA 32:57:15
Time 01:36:43 | Step 34384942 / 633280000 | TPS 4759.07 | ETA 34:57:22
Time 01:36:53 | Step 34443262 / 633280000 | TPS 5831.94 | ETA 28:31:22
Time 01:37:03 | Step 34499831 / 633280000 | TPS 5656.87 | ETA 29:24:10
Time 01:37:13 | Step 34553128 / 633280000 | TPS 5329.64 | ETA 31:12:19
Time 01:37:23 | Step 34603483 / 633280000 | TPS 5035.46 | ETA 33:01:32
Time 01:37:33 | Step 34655242 / 633280000 | TPS 5175.85 | ETA 32:07:37
Time 01:37:43 | Step 34710082 / 633280000 | TPS 5483.92 | ETA 30:19:10
Time 01:37:53 | Step 34764899 / 633280000 | TPS 5481.66 | ETA 30:19:45
Time 01:38:03 | Step 34819415 / 633280000 | TPS 5451.54 | ETA 30:29:38
Time 01:38:13 | Step 34874187 / 633280000 | TPS 5477.18 | ETA 30:20:54
Time 01:38:23 | Step 34927414 / 633280000 | TPS 5322.66 | ETA 31:13:36
Time 01:38:33 | Step 34980842 / 633280000 | TPS 5342.79 | ETA 31:06:22
Time 01:38:43 | Step 35034784 / 633280000 | TPS 5393.95 | ETA 30:48:30
Time 01:38:53 | Step 35093537 / 633280000 | TPS 5875.24 | ETA 28:16:54
Time 01:39:03 | Step 35148958 / 633280000 | TPS 5542.02 | ETA 29:58:46
Time 01:39:13 | Step 35202926 / 633280000 | TPS 5396.8 | ETA 30:47:00
Time 01:39:23 | Step 35262643 / 633280000 | TPS 5971.67 | ETA 27:49:02
Time 01:39:33 | Step 35317850 / 633280000 | TPS 5520.69 | ETA 30:05:12
Time 01:39:43 | Step 35373257 / 633280000 | TPS 5540.68 | ETA 29:58:32
Time 01:39:53 | Step 35425410 / 633280000 | TPS 5215.22 | ETA 31:50:36
Time 01:40:03 | Step 35480244 / 633280000 | TPS 5483.35 | ETA 30:17:00
Time 01:40:13 | Step 35534309 / 633280000 | TPS 5406.48 | ETA 30:42:40
Time 01:40:23 | Step 35594013 / 633280000 | TPS 5970.36 | ETA 27:48:28
Time 01:40:33 | Step 35653452 / 633280000 | TPS 5943.84 | ETA 27:55:45
Time 01:40:43 | Step 35713945 / 633280000 | TPS 6049.29 | ETA 27:26:22
Time 01:40:53 | Step 35771795 / 633280000 | TPS 5784.94 | ETA 28:41:26
Time 01:41:03 | Step 35830331 / 633280000 | TPS 5853.55 | ETA 28:21:06
Time 01:41:13 | Step 35883755 / 633280000 | TPS 5342.33 | ETA 31:03:43
Time 01:41:23 | Step 35938215 / 633280000 | TPS 5445.96 | ETA 30:28:05
Time 01:41:33 | Step 35998357 / 633280000 | TPS 6014.11 | ETA 27:35:13
Time 01:41:43 | Step 36055361 / 633280000 | TPS 5700.23 | ETA 29:06:12
Time 01:41:53 | Step 36113287 / 633280000 | TPS 5792.52 | ETA 28:38:12
Time 01:42:03 | Step 36176587 / 633280000 | TPS 6329.96 | ETA 26:12:09
Time 01:42:13 | Step 36239648 / 633280000 | TPS 6306.06 | ETA 26:17:57
Time 01:42:23 | Step 36302575 / 633280000 | TPS 6292.66 | ETA 26:21:08
Time 01:42:33 | Step 36369418 / 633280000 | TPS 6684.23 | ETA 24:48:21
Time 01:42:43 | Step 36431034 / 633280000 | TPS 6161.24 | ETA 26:54:31
Time 01:42:53 | Step 36486390 / 633280000 | TPS 5535.6 | ETA 29:56:50
Time 01:43:03 | Step 36546424 / 633280000 | TPS 6003.38 | ETA 27:36:39
Time 01:43:13 | Step 36604964 / 633280000 | TPS 5853.94 | ETA 28:18:47
Time 01:43:23 | Step 36660106 / 633280000 | TPS 5514.16 | ETA 30:03:17
Time 01:43:33 | Step 36720384 / 633280000 | TPS 6027.73 | ETA 27:29:29
Time 01:43:43 | Step 36781813 / 633280000 | TPS 6142.87 | ETA 26:58:24
Time 01:43:53 | Step 36845309 / 633280000 | TPS 6349.59 | ETA 26:05:32
Time 01:44:03 | Step 36906987 / 633280000 | TPS 6167.73 | ETA 26:51:32
Time 01:44:13 | Step 36971080 / 633280000 | TPS 6409.22 | ETA 25:50:39
Time 01:44:23 | Step 37034026 / 633280000 | TPS 6294.51 | ETA 26:18:44
Time 01:44:33 | Step 37088970 / 633280000 | TPS 5494.33 | ETA 30:08:30
Time 01:44:43 | Step 37139228 / 633280000 | TPS 5025.75 | ETA 32:56:57
Time 01:44:53 | Step 37187279 / 633280000 | TPS 4805.07 | ETA 34:27:34
Time 01:45:03 | Step 37241634 / 633280000 | TPS 5435.37 | ETA 30:27:39
Time 01:45:13 | Step 37289691 / 633280000 | TPS 4805.65 | ETA 34:26:58
Time 01:45:23 | Step 37344005 / 633280000 | TPS 5431.39 | ETA 30:28:40
Time 01:45:33 | Step 37403840 / 633280000 | TPS 5983.45 | ETA 27:39:47
Time 01:45:43 | Step 37462731 / 633280000 | TPS 5889.05 | ETA 28:06:13
Time 01:45:53 | Step 37522866 / 633280000 | TPS 6013.42 | ETA 27:31:11
Time 01:46:03 | Step 37583802 / 633280000 | TPS 6093.3 | ETA 27:09:22
Time 01:46:13 | Step 37638297 / 633280000 | TPS 5449.44 | ETA 30:21:43
Time 01:46:23 | Step 37691310 / 633280000 | TPS 5301.25 | ETA 31:12:28
Time 01:46:33 | Step 37744166 / 633280000 | TPS 5285.56 | ETA 31:17:52
Time 01:46:43 | Step 37795437 / 633280000 | TPS 5127.06 | ETA 32:15:45
Time 01:46:53 | Step 37848081 / 633280000 | TPS 5264.4 | ETA 31:25:05
Time 01:47:03 | Step 37905181 / 633280000 | TPS 5709.79 | ETA 28:57:52
Time 01:47:13 | Step 37962635 / 633280000 | TPS 5745.05 | ETA 28:47:02
Time 01:47:23 | Step 38014786 / 633280000 | TPS 5215.07 | ETA 31:42:23
Time 01:47:33 | Step 38067651 / 633280000 | TPS 5286.45 | ETA 31:16:31
Time 01:47:43 | Step 38127120 / 633280000 | TPS 5946.86 | ETA 27:47:58
Time 01:47:53 | Step 38187081 / 633280000 | TPS 5996.03 | ETA 27:34:07
Time 01:48:03 | Step 38246643 / 633280000 | TPS 5956.19 | ETA 27:45:01
Time 01:48:13 | Step 38306396 / 633280000 | TPS 5975.27 | ETA 27:39:32
Time 01:48:23 | Step 38360830 / 633280000 | TPS 5443.39 | ETA 30:21:31
Time 01:48:33 | Step 38415862 / 633280000 | TPS 5503.18 | ETA 30:01:34
Time 01:48:43 | Step 38469179 / 633280000 | TPS 5331.7 | ETA 30:59:21
Time 01:48:53 | Step 38526009 / 633280000 | TPS 5682.92 | ETA 29:04:16
Time 01:49:03 | Step 38588493 / 633280000 | TPS 6248.36 | ETA 26:26:15
Time 01:49:13 | Step 38652854 / 633280000 | TPS 6436 | ETA 25:39:50
Time 01:49:23 | Step 38715424 / 633280000 | TPS 6256.93 | ETA 26:23:44
Time 01:49:33 | Step 38774208 / 633280000 | TPS 5878.34 | ETA 28:05:34
Time 01:49:43 | Step 38834219 / 633280000 | TPS 6001.06 | ETA 27:30:56
Time 01:49:53 | Step 38888741 / 633280000 | TPS 5452.2 | ETA 30:16:58
Time 01:50:03 | Step 38940589 / 633280000 | TPS 5184.79 | ETA 31:50:31
Time 01:50:13 | Step 39000660 / 633280000 | TPS 6007.1 | ETA 27:28:49
Time 01:50:23 | Step 39057729 / 633280000 | TPS 5706.88 | ETA 28:55:23
Time 01:50:33 | Step 39115940 / 633280000 | TPS 5821.1 | ETA 28:21:10
Time 01:50:43 | Step 39174484 / 633280000 | TPS 5854.4 | ETA 28:11:20
Time 01:50:53 | Step 39234901 / 633280000 | TPS 6041.25 | ETA 27:18:51
Time 01:51:03 | Step 39285444 / 633280000 | TPS 5054.25 | ETA 32:38:43
Time 01:51:13 | Step 39337276 / 633280000 | TPS 5183.19 | ETA 31:49:50
Time 01:51:23 | Step 39393509 / 633280000 | TPS 5623.23 | ETA 29:20:13
Time 01:51:33 | Step 39454808 / 633280000 | TPS 6129.89 | ETA 26:54:33
Time 01:51:43 | Step 39520441 / 633280000 | TPS 6563.22 | ETA 25:07:47
Time 01:51:53 | Step 39583848 / 633280000 | TPS 6340.69 | ETA 26:00:32
Time 01:52:03 | Step 39649802 / 633280000 | TPS 6595.28 | ETA 25:00:08
Time 01:52:13 | Step 39713716 / 633280000 | TPS 6391.37 | ETA 25:47:49
Time 01:52:23 | Step 39777563 / 633280000 | TPS 6384.68 | ETA 25:49:17
Time 01:52:33 | Step 39839666 / 633280000 | TPS 6210.12 | ETA 26:32:40
Time 01:52:43 | Step 39901302 / 633280000 | TPS 6163.45 | ETA 26:44:33
Time 01:52:53 | Step 39960083 / 633280000 | TPS 5878.06 | ETA 28:02:17
Time 01:53:03 | Step 40021301 / 633280000 | TPS 6121.71 | ETA 26:55:10
Time 01:53:13 | Step 40077989 / 633280000 | TPS 5668.71 | ETA 29:04:04
Time 01:53:23 | Step 40134925 / 633280000 | TPS 5693.53 | ETA 28:56:18
Time 01:53:33 | Step 40189040 / 633280000 | TPS 5411.5 | ETA 30:26:38
Time 01:53:43 | Step 40241731 / 633280000 | TPS 5268.84 | ETA 31:15:55
Time 01:53:53 | Step 40290901 / 633280000 | TPS 4916.8 | ETA 33:30:04
Time 01:54:03 | Step 40337350 / 633280000 | TPS 4644.86 | ETA 35:27:35
Time 01:54:13 | Step 40386933 / 633280000 | TPS 4958.25 | ETA 33:12:57
Time 01:54:23 | Step 40438886 / 633280000 | TPS 5195.24 | ETA 31:41:52
Time 01:54:33 | Step 40495801 / 633280000 | TPS 5691.22 | ETA 28:55:57
Time 01:54:43 | Step 40558229 / 633280000 | TPS 6242.74 | ETA 26:22:25
Time 01:54:53 | Step 40622777 / 633280000 | TPS 6454.8 | ETA 25:30:16
Time 01:55:03 | Step 40676060 / 633280000 | TPS 5327.96 | ETA 30:53:45
Time 01:55:13 | Step 40728578 / 633280000 | TPS 5251.72 | ETA 31:20:29
Time 01:55:23 | Step 40780657 / 633280000 | TPS 5207.75 | ETA 31:36:12
Time 01:55:33 | Step 40836092 / 633280000 | TPS 5543.49 | ETA 29:41:11
Time 01:55:43 | Step 40892373 / 633280000 | TPS 5628.09 | ETA 29:14:15
Time 01:55:53 | Step 40945016 / 633280000 | TPS 5264.23 | ETA 31:15:20
Time 01:56:03 | Step 40993236 / 633280000 | TPS 4821.75 | ETA 34:07:16
Time 01:56:13 | Step 41048563 / 633280000 | TPS 5532.64 | ETA 29:44:03
Time 01:56:23 | Step 41107700 / 633280000 | TPS 5913.69 | ETA 27:48:55
Time 01:56:33 | Step 41170335 / 633280000 | TPS 6263.44 | ETA 26:15:34
Time 01:56:43 | Step 41229853 / 633280000 | TPS 5951.78 | ETA 27:37:54
Time 01:56:53 | Step 41294573 / 633280000 | TPS 6471.99 | ETA 25:24:28
Time 01:57:03 | Step 41355924 / 633280000 | TPS 6134.87 | ETA 26:48:05
Time 01:57:13 | Step 41417324 / 633280000 | TPS 6139.96 | ETA 26:46:35
Time 01:57:23 | Step 41479367 / 633280000 | TPS 6204.29 | ETA 26:29:45
Time 01:57:33 | Step 41541224 / 633280000 | TPS 6185.68 | ETA 26:34:22
Time 01:57:43 | Step 41600051 / 633280000 | TPS 5882.61 | ETA 27:56:21
Time 01:57:53 | Step 41658601 / 633280000 | TPS 5854.69 | ETA 28:04:10
Time 01:58:03 | Step 41722133 / 633280000 | TPS 6353.19 | ETA 25:51:51
Time 01:58:13 | Step 41786388 / 633280000 | TPS 6425.44 | ETA 25:34:15
Time 01:58:23 | Step 41856631 / 633280000 | TPS 7024.23 | ETA 23:23:17
Time 01:58:33 | Step 41922959 / 633280000 | TPS 6632.78 | ETA 24:45:56
Time 01:58:43 | Step 41989640 / 633280000 | TPS 6668.03 | ETA 24:37:55
Time 01:58:53 | Step 42054223 / 633280000 | TPS 6458.21 | ETA 25:25:46
Time 01:59:03 | Step 42118847 / 633280000 | TPS 6462.31 | ETA 25:24:38
Time 01:59:13 | Step 42185632 / 633280000 | TPS 6678.49 | ETA 24:35:07
Time 01:59:23 | Step 42256222 / 633280000 | TPS 7058.98 | ETA 23:15:26
Time 01:59:33 | Step 42322927 / 633280000 | TPS 6670.29 | ETA 24:36:35
Time 01:59:43 | Step 42384199 / 633280000 | TPS 6127.08 | ETA 26:47:19
Time 01:59:53 | Step 42438552 / 633280000 | TPS 5435.29 | ETA 30:11:44
Time 02:00:03 | Step 42489458 / 633280000 | TPS 5090.58 | ETA 32:14:15
Time 02:00:13 | Step 42545455 / 633280000 | TPS 5599.67 | ETA 29:18:14
Time 02:00:23 | Step 42603805 / 633280000 | TPS 5834.93 | ETA 28:07:11
Time 02:00:33 | Step 42661709 / 633280000 | TPS 5790.36 | ETA 28:20:00
Time 02:00:43 | Step 42721595 / 633280000 | TPS 5988.53 | ETA 27:23:34
Time 02:00:53 | Step 42777855 / 633280000 | TPS 5625.92 | ETA 29:09:20
Time 02:01:03 | Step 42832827 / 633280000 | TPS 5497.16 | ETA 29:50:09
Time 02:01:13 | Step 42892099 / 633280000 | TPS 5927.13 | ETA 27:40:07
Time 02:01:23 | Step 42954114 / 633280000 | TPS 6201.43 | ETA 26:26:31
Time 02:01:33 | Step 43017543 / 633280000 | TPS 6342.83 | ETA 25:50:59
Time 02:01:43 | Step 43076736 / 633280000 | TPS 5919.29 | ETA 27:41:48
Time 02:01:53 | Step 43140642 / 633280000 | TPS 6390.54 | ETA 25:39:05
Time 02:02:03 | Step 43201888 / 633280000 | TPS 6124.57 | ETA 26:45:45
Time 02:02:13 | Step 43270837 / 633280000 | TPS 6894.86 | ETA 23:46:12
Time 02:02:23 | Step 43336132 / 633280000 | TPS 6529.44 | ETA 25:05:51
Time 02:02:33 | Step 43401602 / 633280000 | TPS 6546.9 | ETA 25:01:40
Time 02:02:43 | Step 43468481 / 633280000 | TPS 6687.81 | ETA 24:29:52
Time 02:02:53 | Step 43533385 / 633280000 | TPS 6490.38 | ETA 25:14:24
Time 02:03:03 | Step 43599386 / 633280000 | TPS 6600.03 | ETA 24:49:05
Time 02:03:13 | Step 43665822 / 633280000 | TPS 6643.57 | ETA 24:39:09
Time 02:03:23 | Step 43732793 / 633280000 | TPS 6697.09 | ETA 24:27:10
Time 02:03:33 | Step 43802856 / 633280000 | TPS 7006.29 | ETA 23:22:15
Time 02:03:43 | Step 43869829 / 633280000 | TPS 6697.22 | ETA 24:26:48
Time 02:03:53 | Step 43934921 / 633280000 | TPS 6509.12 | ETA 25:09:01
Time 02:04:03 | Step 43998549 / 633280000 | TPS 6362.73 | ETA 25:43:34
Time 02:04:13 | Step 44062356 / 633280000 | TPS 6380.69 | ETA 25:39:03
Time 02:04:23 | Step 44129508 / 633280000 | TPS 6714.92 | ETA 24:22:17
Time 02:04:33 | Step 44193978 / 633280000 | TPS 6446.99 | ETA 25:22:53
Time 02:04:43 | Step 44258556 / 633280000 | TPS 6457.76 | ETA 25:20:11
Time 02:04:53 | Step 44321143 / 633280000 | TPS 6258.68 | ETA 26:08:22
Time 02:05:03 | Step 44384371 / 633280000 | TPS 6322.78 | ETA 25:52:18
Time 02:05:13 | Step 44451864 / 633280000 | TPS 6749.25 | ETA 24:14:03
Time 02:05:23 | Step 44518661 / 633280000 | TPS 6679.61 | ETA 24:29:03
Time 02:05:33 | Step 44587167 / 633280000 | TPS 6850.58 | ETA 23:52:13
Time 02:05:43 | Step 44641469 / 633280000 | TPS 5430.13 | ETA 30:06:42
Time 02:05:53 | Step 44696672 / 633280000 | TPS 5520.25 | ETA 29:37:02
Time 02:06:03 | Step 44752495 / 633280000 | TPS 5582.29 | ETA 29:17:07
Time 02:06:13 | Step 44809567 / 633280000 | TPS 5707.16 | ETA 28:38:30
Time 02:06:23 | Step 44867224 / 633280000 | TPS 5765.68 | ETA 28:20:54
Time 02:06:33 | Step 44922613 / 633280000 | TPS 5538.9 | ETA 29:30:22
Time 02:06:43 | Step 44976923 / 633280000 | TPS 5430.95 | ETA 30:05:24
Time 02:06:53 | Step 45037159 / 633280000 | TPS 6023.54 | ETA 27:07:37
Time 02:07:03 | Step 45100149 / 633280000 | TPS 6298.97 | ETA 25:56:17
Time 02:07:13 | Step 45164343 / 633280000 | TPS 6419.33 | ETA 25:26:56
Time 02:07:23 | Step 45226530 / 633280000 | TPS 6218.66 | ETA 26:16:02
Time 02:07:33 | Step 45285203 / 633280000 | TPS 5867.25 | ETA 27:50:16
Time 02:07:43 | Step 45335418 / 633280000 | TPS 5021.48 | ETA 32:31:25
Time 02:07:53 | Step 45390656 / 633280000 | TPS 5523.75 | ETA 29:33:49
Time 02:08:03 | Step 45453952 / 633280000 | TPS 6329.6 | ETA 25:47:49
Time 02:08:13 | Step 45513378 / 633280000 | TPS 5942.55 | ETA 27:28:28
Time 02:08:23 | Step 45569773 / 633280000 | TPS 5639.42 | ETA 28:56:54
Time 02:08:33 | Step 45632225 / 633280000 | TPS 6245.15 | ETA 26:08:16
Time 02:08:43 | Step 45693821 / 633280000 | TPS 6159.55 | ETA 26:29:54
Time 02:08:53 | Step 45754586 / 633280000 | TPS 6076.45 | ETA 26:51:28
Time 02:09:03 | Step 45811651 / 633280000 | TPS 5706.44 | ETA 28:35:48
Time 02:09:13 | Step 45866890 / 633280000 | TPS 5523.77 | ETA 29:32:22
Time 02:09:23 | Step 45922626 / 633280000 | TPS 5573.56 | ETA 29:16:22
Time 02:09:33 | Step 45980481 / 633280000 | TPS 5785.43 | ETA 28:11:53
Time 02:09:43 | Step 46036757 / 633280000 | TPS 5627.55 | ETA 28:59:11
Time 02:09:53 | Step 46090001 / 633280000 | TPS 5324.37 | ETA 30:38:03
Time 02:10:03 | Step 46145274 / 633280000 | TPS 5527.27 | ETA 29:30:25
Time 02:10:13 | Step 46202898 / 633280000 | TPS 5762.35 | ETA 28:18:01
Time 02:10:23 | Step 46258743 / 633280000 | TPS 5584.48 | ETA 29:11:56
Time 02:10:33 | Step 46311316 / 633280000 | TPS 5257.25 | ETA 31:00:49
Time 02:10:43 | Step 46367368 / 633280000 | TPS 5605.17 | ETA 29:05:09
Time 02:10:53 | Step 46427381 / 633280000 | TPS 6001.21 | ETA 27:09:49
Time 02:11:03 | Step 46486241 / 633280000 | TPS 5885.93 | ETA 27:41:34
Time 02:11:13 | Step 46544238 / 633280000 | TPS 5799.62 | ETA 28:06:07
Time 02:11:23 | Step 46599423 / 633280000 | TPS 5518.49 | ETA 29:31:51
Time 02:11:33 | Step 46655595 / 633280000 | TPS 5617.18 | ETA 29:00:33
Time 02:11:43 | Step 46710170 / 633280000 | TPS 5457.48 | ETA 29:51:20
Time 02:11:53 | Step 46763162 / 633280000 | TPS 5299.12 | ETA 30:44:41
Time 02:12:03 | Step 46815253 / 633280000 | TPS 5208.91 | ETA 31:16:28
Time 02:12:13 | Step 46867693 / 633280000 | TPS 5244 | ETA 31:03:45
Time 02:12:23 | Step 46918526 / 633280000 | TPS 5083.29 | ETA 32:02:30
Time 02:12:33 | Step 46969000 / 633280000 | TPS 5047.35 | ETA 32:16:02
Time 02:12:43 | Step 47016118 / 633280000 | TPS 4711.8 | ETA 34:33:44
Time 02:12:53 | Step 47068695 / 633280000 | TPS 5257.64 | ETA 30:58:17
Time 02:13:03 | Step 47120908 / 633280000 | TPS 5221.28 | ETA 31:11:03
Time 02:13:13 | Step 47174949 / 633280000 | TPS 5404.06 | ETA 30:07:36
Time 02:13:23 | Step 47226722 / 633280000 | TPS 5177.28 | ETA 31:26:37
Time 02:13:33 | Step 47277957 / 633280000 | TPS 5123.49 | ETA 31:46:15
Time 02:13:43 | Step 47328251 / 633280000 | TPS 5029.35 | ETA 32:21:46
Time 02:13:53 | Step 47380236 / 633280000 | TPS 5198.44 | ETA 31:18:26
Time 02:14:03 | Step 47436168 / 633280000 | TPS 5593.16 | ETA 29:05:42
Time 02:14:13 | Step 47490413 / 633280000 | TPS 5424.42 | ETA 29:59:51
Time 02:14:23 | Step 47539234 / 633280000 | TPS 4882 | ETA 33:19:39
Time 02:14:33 | Step 47586538 / 633280000 | TPS 4730.11 | ETA 34:23:42
Time 02:14:43 | Step 47637232 / 633280000 | TPS 5069.4 | ETA 32:05:25
Time 02:14:53 | Step 47687069 / 633280000 | TPS 4983.65 | ETA 32:38:22
Time 02:15:03 | Step 47739780 / 633280000 | TPS 5271.04 | ETA 30:51:26
Time 02:15:13 | Step 47794716 / 633280000 | TPS 5493.57 | ETA 29:36:16
Time 02:15:23 | Step 47849249 / 633280000 | TPS 5453.24 | ETA 29:49:14
Time 02:15:33 | Step 47901642 / 633280000 | TPS 5239.24 | ETA 31:02:09
Time 02:15:43 | Step 47955733 / 633280000 | TPS 5408.85 | ETA 30:03:36
Time 02:15:53 | Step 48008716 / 633280000 | TPS 5298.27 | ETA 30:41:04
Time 02:16:03 | Step 48061074 / 633280000 | TPS 5235.75 | ETA 31:02:53
Time 02:16:13 | Step 48118205 / 633280000 | TPS 5713.07 | ETA 28:27:05
Time 02:16:23 | Step 48170427 / 633280000 | TPS 5222.13 | ETA 31:07:24
Time 02:16:33 | Step 48226298 / 633280000 | TPS 5587.07 | ETA 29:05:15
Time 02:16:43 | Step 48285774 / 633280000 | TPS 5947.55 | ETA 27:19:18
Time 02:16:53 | Step 48340932 / 633280000 | TPS 5515.8 | ETA 29:27:27
Time 02:17:03 | Step 48390575 / 633280000 | TPS 4964.26 | ETA 32:43:40
Time 02:17:13 | Step 48440089 / 633280000 | TPS 4951.36 | ETA 32:48:37
Time 02:17:23 | Step 48495156 / 633280000 | TPS 5506.68 | ETA 29:29:55
Time 02:17:33 | Step 48551919 / 633280000 | TPS 5676.21 | ETA 28:36:53
Time 02:17:43 | Step 48604954 / 633280000 | TPS 5303.48 | ETA 30:37:23
Time 02:17:53 | Step 48661887 / 633280000 | TPS 5693.25 | ETA 28:31:26
Time 02:18:03 | Step 48714745 / 633280000 | TPS 5285.79 | ETA 30:43:11
Time 02:18:13 | Step 48771300 / 633280000 | TPS 5655.47 | ETA 28:42:32
Time 02:18:23 | Step 48828431 / 633280000 | TPS 5713.09 | ETA 28:25:00
Time 02:18:33 | Step 48887191 / 633280000 | TPS 5875.94 | ETA 27:37:35
Time 02:18:43 | Step 48947116 / 633280000 | TPS 5992.46 | ETA 27:05:11
Time 02:18:53 | Step 49004241 / 633280000 | TPS 5712.26 | ETA 28:24:44
Time 02:19:03 | Step 49059063 / 633280000 | TPS 5482.2 | ETA 29:36:06
Time 02:19:13 | Step 49117069 / 633280000 | TPS 5800.6 | ETA 27:58:27
Time 02:19:23 | Step 49178190 / 633280000 | TPS 6112.04 | ETA 26:32:45
Time 02:19:33 | Step 49240695 / 633280000 | TPS 6250.47 | ETA 25:57:19
Time 02:19:43 | Step 49297473 / 633280000 | TPS 5677.58 | ETA 28:34:17
Time 02:19:53 | Step 49357047 / 633280000 | TPS 5957.36 | ETA 27:13:37
Time 02:20:03 | Step 49416551 / 633280000 | TPS 5950.35 | ETA 27:15:22
Time 02:20:13 | Step 49477982 / 633280000 | TPS 6143.06 | ETA 26:23:54
Time 02:20:23 | Step 49533419 / 633280000 | TPS 5543.66 | ETA 29:14:59
Time 02:20:33 | Step 49590441 / 633280000 | TPS 5702.13 | ETA 28:26:03
Time 02:20:43 | Step 49647772 / 633280000 | TPS 5733.07 | ETA 28:16:40
Time 02:20:53 | Step 49706994 / 633280000 | TPS 5921.9 | ETA 27:22:24
Time 02:21:03 | Step 49767316 / 633280000 | TPS 6032.15 | ETA 26:52:13
Time 02:21:13 | Step 49821623 / 633280000 | TPS 5430.65 | ETA 29:50:38
Time 02:21:23 | Step 49875281 / 633280000 | TPS 5365.8 | ETA 30:12:06
Time 02:21:33 | Step 49926245 / 633280000 | TPS 5096.35 | ETA 31:47:44
Time 02:21:43 | Step 49981359 / 633280000 | TPS 5511.35 | ETA 29:23:55
Time 02:21:53 | Step 50035732 / 633280000 | TPS 5437.29 | ETA 29:47:47
Time 02:22:03 | Step 50096578 / 633280000 | TPS 6084.54 | ETA 26:37:26
Time 02:22:13 | Step 50157488 / 633280000 | TPS 6090.94 | ETA 26:35:36
Time 02:22:23 | Step 50214420 / 633280000 | TPS 5693.17 | ETA 28:26:54
Time 02:22:33 | Step 50269800 / 633280000 | TPS 5537.71 | ETA 29:14:40
Time 02:22:43 | Step 50327777 / 633280000 | TPS 5797.69 | ETA 27:55:49
Time 02:22:53 | Step 50387320 / 633280000 | TPS 5954.27 | ETA 27:11:34
Time 02:23:03 | Step 50440501 / 633280000 | TPS 5318.03 | ETA 30:26:36
Time 02:23:13 | Step 50496964 / 633280000 | TPS 5646.15 | ETA 28:40:17
Time 02:23:23 | Step 50552999 / 633280000 | TPS 5603.42 | ETA 28:53:14
Time 02:23:33 | Step 50607390 / 633280000 | TPS 5439.07 | ETA 29:45:27
Time 02:23:43 | Step 50657512 / 633280000 | TPS 5012.15 | ETA 32:17:21
Time 02:23:53 | Step 50710520 / 633280000 | TPS 5300.72 | ETA 30:31:43
Time 02:24:03 | Step 50766749 / 633280000 | TPS 5622.86 | ETA 28:46:37
Time 02:24:13 | Step 50821613 / 633280000 | TPS 5486.34 | ETA 29:29:25
Time 02:24:23 | Step 50876581 / 633280000 | TPS 5496.76 | ETA 29:25:53
Time 02:24:33 | Step 50926568 / 633280000 | TPS 4998.65 | ETA 32:21:42
Time 02:24:43 | Step 50974160 / 633280000 | TPS 4759.14 | ETA 33:59:15
Time 02:24:53 | Step 51023198 / 633280000 | TPS 4903.74 | ETA 32:58:57
Time 02:25:03 | Step 51080041 / 633280000 | TPS 5684.22 | ETA 28:27:03
Time 02:25:13 | Step 51138381 / 633280000 | TPS 5833.94 | ETA 27:43:05
Time 02:25:23 | Step 51198660 / 633280000 | TPS 6027.85 | ETA 26:49:25
Time 02:25:33 | Step 51251398 / 633280000 | TPS 5273.77 | ETA 30:39:22
Time 02:25:43 | Step 51302479 / 633280000 | TPS 5108.04 | ETA 31:38:53
Time 02:25:53 | Step 51356720 / 633280000 | TPS 5424.08 | ETA 29:48:05
Time 02:26:03 | Step 51411474 / 633280000 | TPS 5475.33 | ETA 29:31:10
Time 02:26:13 | Step 51466165 / 633280000 | TPS 5469.05 | ETA 29:33:02
Time 02:26:23 | Step 51514874 / 633280000 | TPS 4870.88 | ETA 33:10:37
Time 02:26:33 | Step 51563342 / 633280000 | TPS 4846.79 | ETA 33:20:21
Time 02:26:43 | Step 51616714 / 633280000 | TPS 5337.14 | ETA 30:16:24
Time 02:26:53 | Step 51671997 / 633280000 | TPS 5528.05 | ETA 29:13:30
Time 02:27:03 | Step 51725994 / 633280000 | TPS 5399.48 | ETA 29:55:05
Time 02:27:13 | Step 51783286 / 633280000 | TPS 5729.16 | ETA 28:11:37
Time 02:27:23 | Step 51838080 / 633280000 | TPS 5479.39 | ETA 29:28:34
Time 02:27:33 | Step 51891418 / 633280000 | TPS 5333.58 | ETA 30:16:45
Time 02:27:43 | Step 51946972 / 633280000 | TPS 5555.32 | ETA 29:04:04
Time 02:27:53 | Step 52003235 / 633280000 | TPS 5626.21 | ETA 28:41:55
Time 02:28:03 | Step 52058049 / 633280000 | TPS 5481.38 | ETA 29:27:15
Time 02:28:13 | Step 52115254 / 633280000 | TPS 5720.43 | ETA 28:13:14
Time 02:28:23 | Step 52171984 / 633280000 | TPS 5672.94 | ETA 28:27:14
Time 02:28:33 | Step 52224255 / 633280000 | TPS 5227.06 | ETA 30:52:42
Time 02:28:43 | Step 52274564 / 633280000 | TPS 5030.81 | ETA 32:04:49
Time 02:28:53 | Step 52325583 / 633280000 | TPS 5101.85 | ETA 31:37:51
Time 02:29:03 | Step 52375942 / 633280000 | TPS 5035.89 | ETA 32:02:32
Time 02:29:13 | Step 52429453 / 633280000 | TPS 5351.07 | ETA 30:09:08
Time 02:29:23 | Step 52486370 / 633280000 | TPS 5691.64 | ETA 28:20:43
Time 02:29:33 | Step 52539252 / 633280000 | TPS 5288.17 | ETA 30:30:18
Time 02:29:43 | Step 52593695 / 633280000 | TPS 5444.27 | ETA 29:37:40
Time 02:29:53 | Step 52644300 / 633280000 | TPS 5060.43 | ETA 31:52:20
Time 02:30:03 | Step 52695042 / 633280000 | TPS 5074.16 | ETA 31:46:59
Time 02:30:13 | Step 52745457 / 633280000 | TPS 5041.43 | ETA 31:59:12
Time 02:30:23 | Step 52793799 / 633280000 | TPS 4834.13 | ETA 33:21:20
Time 02:30:33 | Step 52846303 / 633280000 | TPS 5250.16 | ETA 30:42:35
Time 02:30:43 | Step 52896135 / 633280000 | TPS 4983.12 | ETA 32:21:10
Time 02:30:53 | Step 52946395 / 633280000 | TPS 5025.95 | ETA 32:04:27
Time 02:31:03 | Step 52999105 / 633280000 | TPS 5270.99 | ETA 30:34:49
Time 02:31:13 | Step 53054733 / 633280000 | TPS 5562.8 | ETA 28:58:24
Time 02:31:23 | Step 53105380 / 633280000 | TPS 5064.58 | ETA 31:49:15
Time 02:31:33 | Step 53152530 / 633280000 | TPS 4714.99 | ETA 34:10:39
Time 02:31:43 | Step 53201111 / 633280000 | TPS 4858.02 | ETA 33:10:06
Time 02:31:53 | Step 53250045 / 633280000 | TPS 4893.31 | ETA 32:55:35
Time 02:32:03 | Step 53296262 / 633280000 | TPS 4621.69 | ETA 34:51:31
Time 02:32:13 | Step 53345495 / 633280000 | TPS 4923.28 | ETA 32:43:14
Time 02:32:23 | Step 53399681 / 633280000 | TPS 5418.57 | ETA 29:43:37
Time 02:32:33 | Step 53450491 / 633280000 | TPS 5080.95 | ETA 31:41:58
Time 02:32:43 | Step 53501152 / 633280000 | TPS 5066.07 | ETA 31:47:23
Time 02:32:53 | Step 53550642 / 633280000 | TPS 4948.94 | ETA 32:32:22
Time 02:33:03 | Step 53600737 / 633280000 | TPS 5009.44 | ETA 32:08:37
Time 02:33:13 | Step 53654344 / 633280000 | TPS 5360.46 | ETA 30:02:09
Time 02:33:23 | Step 53706596 / 633280000 | TPS 5225.15 | ETA 30:48:40
Time 02:33:33 | Step 53757901 / 633280000 | TPS 5130.22 | ETA 31:22:42
Time 02:33:43 | Step 53807102 / 633280000 | TPS 4919.82 | ETA 32:43:03
Time 02:33:53 | Step 53858598 / 633280000 | TPS 5149.46 | ETA 31:15:20
Time 02:34:03 | Step 53910838 / 633280000 | TPS 5223.94 | ETA 30:48:26
Time 02:34:13 | Step 53966734 / 633280000 | TPS 5589.59 | ETA 28:47:21
Time 02:34:23 | Step 54019386 / 633280000 | TPS 5264.98 | ETA 30:33:41
Time 02:34:33 | Step 54071025 / 633280000 | TPS 5163.86 | ETA 31:09:25
Time 02:34:43 | Step 54121395 / 633280000 | TPS 5036.99 | ETA 31:56:21
Time 02:34:53 | Step 54173627 / 633280000 | TPS 5222.95 | ETA 30:47:57
Time 02:35:03 | Step 54229932 / 633280000 | TPS 5630.43 | ETA 28:34:02
Time 02:35:13 | Step 54288815 / 633280000 | TPS 5888.21 | ETA 27:18:50
Time 02:35:23 | Step 54349483 / 633280000 | TPS 6066.75 | ETA 26:30:26
Time 02:35:33 | Step 54407416 / 633280000 | TPS 5793.28 | ETA 27:45:21
Time 02:35:43 | Step 54462930 / 633280000 | TPS 5551.36 | ETA 28:57:45
Time 02:35:53 | Step 54524001 / 633280000 | TPS 6107.07 | ETA 26:19:28
Time 02:36:03 | Step 54587156 / 633280000 | TPS 6315.49 | ETA 25:27:10
Time 02:36:13 | Step 54648264 / 633280000 | TPS 6110.75 | ETA 26:18:10
Time 02:36:23 | Step 54705043 / 633280000 | TPS 5677.88 | ETA 28:18:19
Time 02:36:33 | Step 54759415 / 633280000 | TPS 5436.87 | ETA 29:33:26
Time 02:36:43 | Step 54814723 / 633280000 | TPS 5530.79 | ETA 29:03:10
Time 02:36:53 | Step 54871412 / 633280000 | TPS 5668.82 | ETA 28:20:33
Time 02:37:03 | Step 54925517 / 633280000 | TPS 5410.46 | ETA 29:41:35
Time 02:37:13 | Step 54983135 / 633280000 | TPS 5761.8 | ETA 27:52:47
Time 02:37:23 | Step 55039703 / 633280000 | TPS 5656.75 | ETA 28:23:41
Time 02:37:33 | Step 55100960 / 633280000 | TPS 6125.49 | ETA 26:13:09
Time 02:37:43 | Step 55164409 / 633280000 | TPS 6344.85 | ETA 25:18:35
Time 02:37:53 | Step 55225979 / 633280000 | TPS 6156.96 | ETA 26:04:46
Time 02:38:03 | Step 55288146 / 633280000 | TPS 6216.67 | ETA 25:49:34
Time 02:38:13 | Step 55344320 / 633280000 | TPS 5617.33 | ETA 28:34:44
Time 02:38:23 | Step 55402947 / 633280000 | TPS 5862.68 | ETA 27:22:48
Time 02:38:33 | Step 55459837 / 633280000 | TPS 5689 | ETA 28:12:48
Time 02:38:43 | Step 55524388 / 633280000 | TPS 6455.02 | ETA 24:51:44
Time 02:38:53 | Step 55589549 / 633280000 | TPS 6516.08 | ETA 24:37:36
Time 02:39:03 | Step 55653003 / 633280000 | TPS 6345.33 | ETA 25:17:11
Time 02:39:13 | Step 55714057 / 633280000 | TPS 6105.33 | ETA 26:16:40
Time 02:39:23 | Step 55772864 / 633280000 | TPS 5880.68 | ETA 27:16:44
Time 02:39:33 | Step 55834904 / 633280000 | TPS 6203.99 | ETA 25:51:16
Time 02:39:43 | Step 55894669 / 633280000 | TPS 5976.44 | ETA 26:50:10
Time 02:39:53 | Step 55948853 / 633280000 | TPS 5418.34 | ETA 29:35:51
Time 02:40:03 | Step 56006797 / 633280000 | TPS 5794.18 | ETA 27:40:29
Time 02:40:13 | Step 56061368 / 633280000 | TPS 5457.09 | ETA 29:22:54
Time 02:40:23 | Step 56116739 / 633280000 | TPS 5536.98 | ETA 28:57:17
Time 02:40:33 | Step 56175614 / 633280000 | TPS 5887.47 | ETA 27:13:42
Time 02:40:43 | Step 56231889 / 633280000 | TPS 5627.47 | ETA 28:29:01
Time 02:40:53 | Step 56286108 / 633280000 | TPS 5421.89 | ETA 29:33:39
Time 02:41:03 | Step 56340095 / 633280000 | TPS 5398.53 | ETA 29:41:09
Time 02:41:13 | Step 56394885 / 633280000 | TPS 5478.99 | ETA 29:14:50
Time 02:41:23 | Step 56450096 / 633280000 | TPS 5521.06 | ETA 29:01:18
Time 02:41:33 | Step 56502531 / 633280000 | TPS 5243.45 | ETA 30:33:19
Time 02:41:43 | Step 56557311 / 633280000 | TPS 5477.93 | ETA 29:14:41
Time 02:41:53 | Step 56613496 / 633280000 | TPS 5618.45 | ETA 28:30:37
Time 02:42:03 | Step 56668151 / 633280000 | TPS 5465.43 | ETA 29:18:21
Time 02:42:13 | Step 56727287 / 633280000 | TPS 5913.55 | ETA 27:04:56
Time 02:42:23 | Step 56781457 / 633280000 | TPS 5416.99 | ETA 29:33:44
Time 02:42:33 | Step 56834527 / 633280000 | TPS 5306.99 | ETA 30:10:20
Time 02:42:43 | Step 56893859 / 633280000 | TPS 5933.11 | ETA 26:59:07
Time 02:42:53 | Step 56951704 / 633280000 | TPS 5784.44 | ETA 27:40:34
Time 02:43:03 | Step 57010442 / 633280000 | TPS 5873.74 | ETA 27:15:09
Time 02:43:13 | Step 57069949 / 633280000 | TPS 5950.64 | ETA 26:53:51
Time 02:43:23 | Step 57128495 / 633280000 | TPS 5854.58 | ETA 27:20:10
Time 02:43:33 | Step 57184507 / 633280000 | TPS 5601.12 | ETA 28:34:13
Time 02:43:43 | Step 57244916 / 633280000 | TPS 6040.83 | ETA 26:29:16
Time 02:43:53 | Step 57302590 / 633280000 | TPS 5767.39 | ETA 27:44:28
Time 02:44:03 | Step 57361340 / 633280000 | TPS 5875 | ETA 27:13:48
Time 02:44:13 | Step 57417429 / 633280000 | TPS 5608.88 | ETA 28:31:09
Time 02:44:23 | Step 57474349 / 633280000 | TPS 5691.94 | ETA 28:06:01
Time 02:44:33 | Step 57531804 / 633280000 | TPS 5745.44 | ETA 27:50:09
Time 02:44:43 | Step 57593624 / 633280000 | TPS 6181.97 | ETA 25:52:03
Time 02:44:53 | Step 57653657 / 633280000 | TPS 6003.28 | ETA 26:38:05
Time 02:45:03 | Step 57712061 / 633280000 | TPS 5840.14 | ETA 27:22:33
Time 02:45:13 | Step 57767430 / 633280000 | TPS 5536.82 | ETA 28:52:22
Time 02:45:23 | Step 57823709 / 633280000 | TPS 5627.83 | ETA 28:24:11
Time 02:45:33 | Step 57877788 / 633280000 | TPS 5407.83 | ETA 29:33:21
Time 02:45:43 | Step 57930573 / 633280000 | TPS 5278.48 | ETA 30:16:39
Time 02:45:53 | Step 57985677 / 633280000 | TPS 5510.33 | ETA 29:00:02
Time 02:46:03 | Step 58039439 / 633280000 | TPS 5376.16 | ETA 29:43:18
Time 02:46:13 | Step 58095263 / 633280000 | TPS 5582.32 | ETA 28:37:16
Time 02:46:23 | Step 58150172 / 633280000 | TPS 5490.87 | ETA 29:05:42
Time 02:46:33 | Step 58199224 / 633280000 | TPS 4905.13 | ETA 32:34:00
Time 02:46:43 | Step 58252512 / 633280000 | TPS 5328.76 | ETA 29:58:30
Time 02:46:53 | Step 58310856 / 633280000 | TPS 5834.38 | ETA 27:22:28
Time 02:47:03 | Step 58369318 / 633280000 | TPS 5846.2 | ETA 27:18:59
Time 02:47:13 | Step 58422204 / 633280000 | TPS 5288.57 | ETA 30:11:38
Time 02:47:23 | Step 58485170 / 633280000 | TPS 6296.53 | ETA 25:21:27
Time 02:47:33 | Step 58546303 / 633280000 | TPS 6113.25 | ETA 26:06:54
Time 02:47:43 | Step 58603374 / 633280000 | TPS 5707.04 | ETA 27:58:16
Time 02:47:53 | Step 58653315 / 633280000 | TPS 4994.1 | ETA 31:57:41
Time 02:48:03 | Step 58704015 / 633280000 | TPS 5069.94 | ETA 31:28:50
Time 02:48:13 | Step 58754107 / 633280000 | TPS 5009.12 | ETA 31:51:36
Time 02:48:23 | Step 58803958 / 633280000 | TPS 4985.09 | ETA 32:00:38
Time 02:48:33 | Step 58855899 / 633280000 | TPS 5194.07 | ETA 30:43:12
Time 02:48:43 | Step 58907724 / 633280000 | TPS 5182.45 | ETA 30:47:10
Time 02:48:53 | Step 58964162 / 633280000 | TPS 5643.55 | ETA 28:16:04
Time 02:49:03 | Step 59020127 / 633280000 | TPS 5596.47 | ETA 28:30:11
Time 02:49:13 | Step 59073217 / 633280000 | TPS 5308.99 | ETA 30:02:37
Time 02:49:23 | Step 59128495 / 633280000 | TPS 5527.54 | ETA 28:51:11
Time 02:49:33 | Step 59181104 / 633280000 | TPS 5260.6 | ETA 30:18:51
Time 02:49:43 | Step 59235428 / 633280000 | TPS 5432.32 | ETA 29:21:12
Time 02:49:53 | Step 59286172 / 633280000 | TPS 5074.06 | ETA 31:25:23
Time 02:50:03 | Step 59339323 / 633280000 | TPS 5314.76 | ETA 29:59:50
Time 02:50:13 | Step 59393063 / 633280000 | TPS 5373.92 | ETA 29:39:51
Time 02:50:23 | Step 59445229 / 633280000 | TPS 5216.52 | ETA 30:33:23
Time 02:50:33 | Step 59498702 / 633280000 | TPS 5347.01 | ETA 29:48:28
Time 02:50:43 | Step 59553160 / 633280000 | TPS 5445.8 | ETA 29:15:52
Time 02:50:53 | Step 59607630 / 633280000 | TPS 5446.93 | ETA 29:15:20
Time 02:51:03 | Step 59667315 / 633280000 | TPS 5968.48 | ETA 26:41:47
Time 02:51:13 | Step 59723853 / 633280000 | TPS 5653.75 | ETA 28:10:47
Time 02:51:23 | Step 59778185 / 633280000 | TPS 5433.2 | ETA 29:19:15
Time 02:51:33 | Step 59831851 / 633280000 | TPS 5366.55 | ETA 29:40:56
Time 02:51:43 | Step 59887507 / 633280000 | TPS 5565.59 | ETA 28:37:04
Time 02:51:53 | Step 59945978 / 633280000 | TPS 5846.89 | ETA 27:14:18
Time 02:52:03 | Step 60003819 / 633280000 | TPS 5784.07 | ETA 27:31:52
Time 02:52:13 | Step 60066452 / 633280000 | TPS 6263.23 | ETA 25:25:20
Time 02:52:23 | Step 60127781 / 633280000 | TPS 6132.86 | ETA 25:57:35
Time 02:52:33 | Step 60185361 / 633280000 | TPS 5757.96 | ETA 27:38:50
Time 02:52:43 | Step 60246346 / 633280000 | TPS 6098.49 | ETA 26:06:03
Time 02:52:53 | Step 60302049 / 633280000 | TPS 5570.22 | ETA 28:34:24
Time 02:53:03 | Step 60356610 / 633280000 | TPS 5455.93 | ETA 29:10:09
Time 02:53:13 | Step 60414835 / 633280000 | TPS 5822.48 | ETA 27:19:48
Time 02:53:23 | Step 60468873 / 633280000 | TPS 5403.68 | ETA 29:26:43
Time 02:53:33 | Step 60527046 / 633280000 | TPS 5817.24 | ETA 27:20:57
Time 02:53:43 | Step 60587938 / 633280000 | TPS 6089.12 | ETA 26:07:31
Time 02:53:53 | Step 60648088 / 633280000 | TPS 6014.97 | ETA 26:26:41
Time 02:54:03 | Step 60705065 / 633280000 | TPS 5697.67 | ETA 27:54:52
Time 02:54:13 | Step 60759963 / 633280000 | TPS 5489.76 | ETA 28:58:08
Time 02:54:23 | Step 60811937 / 633280000 | TPS 5197.33 | ETA 30:35:46
Time 02:54:33 | Step 60866579 / 633280000 | TPS 5464.2 | ETA 29:05:57
Time 02:54:43 | Step 60919698 / 633280000 | TPS 5311.88 | ETA 29:55:50
Time 02:54:53 | Step 60971105 / 633280000 | TPS 5140.66 | ETA 30:55:29
Time 02:55:03 | Step 61021715 / 633280000 | TPS 5060.96 | ETA 31:24:33
Time 02:55:13 | Step 61076198 / 633280000 | TPS 5448.11 | ETA 29:10:27
Time 02:55:23 | Step 61130879 / 633280000 | TPS 5467.88 | ETA 29:03:58
Time 02:55:33 | Step 61190920 / 633280000 | TPS 6004.02 | ETA 26:28:04
Time 02:55:43 | Step 61246570 / 633280000 | TPS 5564.91 | ETA 28:33:12
Time 02:55:53 | Step 61306578 / 633280000 | TPS 6000.79 | ETA 26:28:36
Time 02:56:03 | Step 61362801 / 633280000 | TPS 5622.29 | ETA 28:15:23
Time 02:56:13 | Step 61418836 / 633280000 | TPS 5603.43 | ETA 28:20:55
Time 02:56:23 | Step 61475359 / 633280000 | TPS 5652.3 | ETA 28:06:03
Time 02:56:33 | Step 61525802 / 633280000 | TPS 5043.92 | ETA 31:29:15
Time 02:56:43 | Step 61576042 / 633280000 | TPS 5023.95 | ETA 31:36:35
Time 02:56:53 | Step 61627607 / 633280000 | TPS 5156.48 | ETA 30:47:40
Time 02:57:03 | Step 61678434 / 633280000 | TPS 5082.67 | ETA 31:14:20
Time 02:57:13 | Step 61733224 / 633280000 | TPS 5478.96 | ETA 28:58:36
Time 02:57:23 | Step 61786980 / 633280000 | TPS 5375.54 | ETA 29:31:53
Time 02:57:33 | Step 61840408 / 633280000 | TPS 5342.78 | ETA 29:42:35
Time 02:57:43 | Step 61898173 / 633280000 | TPS 5776.33 | ETA 27:28:37
Time 02:57:53 | Step 61956681 / 633280000 | TPS 5850.79 | ETA 27:07:28
Time 02:58:03 | Step 62013209 / 633280000 | TPS 5652.78 | ETA 28:04:19
Time 02:58:13 | Step 62065933 / 633280000 | TPS 5272.22 | ETA 30:05:44
Time 02:58:23 | Step 62121923 / 633280000 | TPS 5598.98 | ETA 28:20:11
Time 02:58:33 | Step 62184005 / 633280000 | TPS 6208.18 | ETA 25:33:10
Time 02:58:43 | Step 62245719 / 633280000 | TPS 6171.06 | ETA 25:42:14
Time 02:58:53 | Step 62305197 / 633280000 | TPS 5947.75 | ETA 26:39:58
Time 02:59:03 | Step 62366202 / 633280000 | TPS 6100.26 | ETA 25:59:48
Time 02:59:13 | Step 62425205 / 633280000 | TPS 5900.29 | ETA 26:52:30
Time 02:59:23 | Step 62479640 / 633280000 | TPS 5443.45 | ETA 29:07:40
Time 02:59:33 | Step 62531778 / 633280000 | TPS 5213.73 | ETA 30:24:30
Time 02:59:43 | Step 62583281 / 633280000 | TPS 5150.26 | ETA 30:46:49
Time 02:59:53 | Step 62638937 / 633280000 | TPS 5565.38 | ETA 28:28:54
Time 03:00:03 | Step 62696363 / 633280000 | TPS 5742.59 | ETA 27:36:00
Time 03:00:13 | Step 62754403 / 633280000 | TPS 5803.77 | ETA 27:18:22
Time 03:00:23 | Step 62812867 / 633280000 | TPS 5846.36 | ETA 27:06:16
Time 03:00:33 | Step 62875290 / 633280000 | TPS 6242.25 | ETA 25:22:58
Time 03:00:43 | Step 62939070 / 633280000 | TPS 6377.96 | ETA 24:50:23
Time 03:00:53 | Step 63001270 / 633280000 | TPS 6219.8 | ETA 25:28:07
Time 03:01:03 | Step 63063856 / 633280000 | TPS 6258.58 | ETA 25:18:29
Time 03:01:13 | Step 63125738 / 633280000 | TPS 6188.18 | ETA 25:35:35
Time 03:01:23 | Step 63183149 / 633280000 | TPS 5741.04 | ETA 27:35:02
Time 03:01:33 | Step 63240839 / 633280000 | TPS 5768.93 | ETA 27:26:51
Time 03:01:43 | Step 63303465 / 633280000 | TPS 6262.59 | ETA 25:16:52
Time 03:01:53 | Step 63369243 / 633280000 | TPS 6577.76 | ETA 24:04:02
Time 03:02:03 | Step 63430533 / 633280000 | TPS 6128.93 | ETA 25:49:37
Time 03:02:13 | Step 63488401 / 633280000 | TPS 5786.4 | ETA 27:21:10
Time 03:02:23 | Step 63551491 / 633280000 | TPS 6308.93 | ETA 25:05:05
Time 03:02:33 | Step 63615077 / 633280000 | TPS 6358.57 | ETA 24:53:10
Time 03:02:43 | Step 63678800 / 633280000 | TPS 6372.27 | ETA 24:49:47
Time 03:02:53 | Step 63737233 / 633280000 | TPS 5843.24 | ETA 27:04:30
Time 03:03:03 | Step 63794144 / 633280000 | TPS 5691.09 | ETA 27:47:46
Time 03:03:13 | Step 63857677 / 633280000 | TPS 6353.13 | ETA 24:53:48
Time 03:03:23 | Step 63917917 / 633280000 | TPS 6023.97 | ETA 26:15:16
Time 03:03:33 | Step 63982767 / 633280000 | TPS 6484.98 | ETA 24:23:07
Time 03:03:43 | Step 64046697 / 633280000 | TPS 6392.86 | ETA 24:44:02
Time 03:03:53 | Step 64109744 / 633280000 | TPS 6304.61 | ETA 25:04:38
Time 03:04:03 | Step 64164395 / 633280000 | TPS 5465.03 | ETA 28:55:37
Time 03:04:13 | Step 64215498 / 633280000 | TPS 5110.22 | ETA 30:55:58
Time 03:04:23 | Step 64270363 / 633280000 | TPS 5486.45 | ETA 28:48:31
Time 03:04:33 | Step 64328563 / 633280000 | TPS 5819.96 | ETA 27:09:18
Time 03:04:43 | Step 64385798 / 633280000 | TPS 5723.45 | ETA 27:36:37
Time 03:04:53 | Step 64445111 / 633280000 | TPS 5931.25 | ETA 26:38:24
Time 03:05:03 | Step 64509986 / 633280000 | TPS 6487.43 | ETA 24:21:12
Time 03:05:13 | Step 64571315 / 633280000 | TPS 6132.85 | ETA 25:45:31
Time 03:05:23 | Step 64628826 / 633280000 | TPS 5751.08 | ETA 27:27:57
[...]
Time 28:44:44 | Step 617306314 / 633280000 | TPS 5815.45 | ETA 00:45:46
Time 28:44:54 | Step 617366806 / 633280000 | TPS 6049.06 | ETA 00:43:50
Time 28:45:04 | Step 617423348 / 633280000 | TPS 5654.17 | ETA 00:46:44
Time 28:45:14 | Step 617482310 / 633280000 | TPS 5896.11 | ETA 00:44:39
Time 28:45:24 | Step 617536684 / 633280000 | TPS 5437.38 | ETA 00:48:15
Time 28:45:34 | Step 617589356 / 633280000 | TPS 5266.92 | ETA 00:49:39
Time 28:45:44 | Step 617641499 / 633280000 | TPS 5214.23 | ETA 00:49:59
Time 28:45:54 | Step 617696447 / 633280000 | TPS 5494.75 | ETA 00:47:16
Time 28:46:04 | Step 617750291 / 633280000 | TPS 5384.36 | ETA 00:48:04
Time 28:46:14 | Step 617801818 / 633280000 | TPS 5152.67 | ETA 00:50:03
Time 28:46:24 | Step 617858856 / 633280000 | TPS 5703.73 | ETA 00:45:03
Time 28:46:34 | Step 617913530 / 633280000 | TPS 5467.35 | ETA 00:46:50
Time 28:46:44 | Step 617966856 / 633280000 | TPS 5332.56 | ETA 00:47:51
Time 28:46:54 | Step 618023012 / 633280000 | TPS 5615.56 | ETA 00:45:16
Time 28:47:04 | Step 618082971 / 633280000 | TPS 5995.82 | ETA 00:42:14
Time 28:47:14 | Step 618143424 / 633280000 | TPS 6045.23 | ETA 00:41:43
Time 28:47:24 | Step 618208990 / 633280000 | TPS 6556.55 | ETA 00:38:18
Time 28:47:34 | Step 618276589 / 633280000 | TPS 6759.86 | ETA 00:36:59
Time 28:47:44 | Step 618340520 / 633280000 | TPS 6393.06 | ETA 00:38:56
Time 28:47:54 | Step 618404955 / 633280000 | TPS 6443.49 | ETA 00:38:28
Time 28:48:04 | Step 618464412 / 633280000 | TPS 5945.69 | ETA 00:41:31
Time 28:48:14 | Step 618521227 / 633280000 | TPS 5681.5 | ETA 00:43:17
Time 28:48:24 | Step 618576420 / 633280000 | TPS 5519.28 | ETA 00:44:24
Time 28:48:34 | Step 618630602 / 633280000 | TPS 5417.92 | ETA 00:45:03
Time 28:48:44 | Step 618682492 / 633280000 | TPS 5188.73 | ETA 00:46:53
Time 28:48:54 | Step 618740307 / 633280000 | TPS 5781.48 | ETA 00:41:54
Time 28:49:04 | Step 618793976 / 633280000 | TPS 5366.85 | ETA 00:44:59
Time 28:49:14 | Step 618846906 / 633280000 | TPS 5292.95 | ETA 00:45:26
Time 28:49:24 | Step 618902352 / 633280000 | TPS 5544.54 | ETA 00:43:13
Time 28:49:34 | Step 618956554 / 633280000 | TPS 5420.15 | ETA 00:44:02
Time 28:49:44 | Step 619012832 / 633280000 | TPS 5627.79 | ETA 00:42:15
Time 28:49:54 | Step 619063120 / 633280000 | TPS 5028.78 | ETA 00:47:07
Time 28:50:04 | Step 619125561 / 633280000 | TPS 6244.02 | ETA 00:37:46
Time 28:50:14 | Step 619185139 / 633280000 | TPS 5957.73 | ETA 00:39:25
Time 28:50:24 | Step 619240168 / 633280000 | TPS 5502.9 | ETA 00:42:31
Time 28:50:34 | Step 619296026 / 633280000 | TPS 5585.74 | ETA 00:41:43
Time 28:50:44 | Step 619360375 / 633280000 | TPS 6434.84 | ETA 00:36:03
Time 28:50:54 | Step 619423845 / 633280000 | TPS 6346.96 | ETA 00:36:23
Time 28:51:04 | Step 619486037 / 633280000 | TPS 6219.15 | ETA 00:36:57
Time 28:51:14 | Step 619547168 / 633280000 | TPS 6113.08 | ETA 00:37:26
Time 28:51:24 | Step 619607710 / 633280000 | TPS 6054.17 | ETA 00:37:38
Time 28:51:34 | Step 619665062 / 633280000 | TPS 5735.16 | ETA 00:39:33
Time 28:51:44 | Step 619722139 / 633280000 | TPS 5707.67 | ETA 00:39:35
Time 28:51:54 | Step 619779207 / 633280000 | TPS 5706.8 | ETA 00:39:25
Time 28:52:04 | Step 619836664 / 633280000 | TPS 5745.67 | ETA 00:38:59
Time 28:52:14 | Step 619892925 / 633280000 | TPS 5626.07 | ETA 00:39:39
Time 28:52:24 | Step 619953601 / 633280000 | TPS 6067.47 | ETA 00:36:36
Time 28:52:34 | Step 620010995 / 633280000 | TPS 5739.36 | ETA 00:38:31
Time 28:52:44 | Step 620068654 / 633280000 | TPS 5765.81 | ETA 00:38:11
Time 28:52:54 | Step 620121321 / 633280000 | TPS 5266.69 | ETA 00:41:38
Time 28:53:04 | Step 620173913 / 633280000 | TPS 5259.17 | ETA 00:41:32
Time 28:53:14 | Step 620229989 / 633280000 | TPS 5607.54 | ETA 00:38:47
Time 28:53:24 | Step 620284771 / 633280000 | TPS 5478.19 | ETA 00:39:32
Time 28:53:34 | Step 620337393 / 633280000 | TPS 5262.2 | ETA 00:40:59
Time 28:53:44 | Step 620388690 / 633280000 | TPS 5129.7 | ETA 00:41:53
Time 28:53:54 | Step 620439215 / 633280000 | TPS 5052.49 | ETA 00:42:21
Time 28:54:04 | Step 620492267 / 633280000 | TPS 5305.17 | ETA 00:40:10
Time 28:54:14 | Step 620547809 / 633280000 | TPS 5554.13 | ETA 00:38:12
Time 28:54:24 | Step 620604890 / 633280000 | TPS 5708.04 | ETA 00:37:00
Time 28:54:34 | Step 620663963 / 633280000 | TPS 5907.23 | ETA 00:35:35
Time 28:54:44 | Step 620725649 / 633280000 | TPS 6168.6 | ETA 00:33:55
Time 28:54:54 | Step 620785119 / 633280000 | TPS 5946.97 | ETA 00:35:01
Time 28:55:04 | Step 620842366 / 633280000 | TPS 5724.62 | ETA 00:36:12
Time 28:55:14 | Step 620900998 / 633280000 | TPS 5862.99 | ETA 00:35:11
Time 28:55:24 | Step 620955596 / 633280000 | TPS 5459.77 | ETA 00:37:37
Time 28:55:34 | Step 621009402 / 633280000 | TPS 5380.41 | ETA 00:38:00
Time 28:55:44 | Step 621066028 / 633280000 | TPS 5662.59 | ETA 00:35:56
Time 28:55:54 | Step 621124111 / 633280000 | TPS 5808.25 | ETA 00:34:52
Time 28:56:04 | Step 621179344 / 633280000 | TPS 5523.23 | ETA 00:36:30
Time 28:56:14 | Step 621231027 / 633280000 | TPS 5168.26 | ETA 00:38:51
Time 28:56:24 | Step 621285559 / 633280000 | TPS 5453.14 | ETA 00:36:39
Time 28:56:34 | Step 621340022 / 633280000 | TPS 5446.29 | ETA 00:36:32
Time 28:56:44 | Step 621395932 / 633280000 | TPS 5590.94 | ETA 00:35:25
Time 28:56:54 | Step 621449118 / 633280000 | TPS 5318.59 | ETA 00:37:04
Time 28:57:04 | Step 621501749 / 633280000 | TPS 5263.09 | ETA 00:37:17
Time 28:57:14 | Step 621557135 / 633280000 | TPS 5538.56 | ETA 00:35:16
Time 28:57:24 | Step 621608918 / 633280000 | TPS 5178.3 | ETA 00:37:33
Time 28:57:34 | Step 621659022 / 633280000 | TPS 5010.34 | ETA 00:38:39
Time 28:57:44 | Step 621709634 / 633280000 | TPS 5061.18 | ETA 00:38:06
Time 28:57:54 | Step 621765302 / 633280000 | TPS 5566.66 | ETA 00:34:28
Time 28:58:04 | Step 621818675 / 633280000 | TPS 5337.22 | ETA 00:35:47
Time 28:58:14 | Step 621872034 / 633280000 | TPS 5335.87 | ETA 00:35:37
Time 28:58:24 | Step 621928065 / 633280000 | TPS 5603.06 | ETA 00:33:46
Time 28:58:34 | Step 621985553 / 633280000 | TPS 5748.74 | ETA 00:32:44
Time 28:58:44 | Step 622041865 / 633280000 | TPS 5631.11 | ETA 00:33:15
Time 28:58:54 | Step 622104792 / 633280000 | TPS 6292.64 | ETA 00:29:35
Time 28:59:04 | Step 622165181 / 633280000 | TPS 6038.87 | ETA 00:30:40
Time 28:59:14 | Step 622222072 / 633280000 | TPS 5689.06 | ETA 00:32:23
Time 28:59:24 | Step 622279001 / 633280000 | TPS 5692.77 | ETA 00:32:12
Time 28:59:34 | Step 622335032 / 633280000 | TPS 5603.04 | ETA 00:32:33
Time 28:59:44 | Step 622392913 / 633280000 | TPS 5788.06 | ETA 00:31:20
Time 28:59:54 | Step 622447937 / 633280000 | TPS 5502.29 | ETA 00:32:48
Time 29:00:04 | Step 622497706 / 633280000 | TPS 4976.82 | ETA 00:36:06
Time 29:00:14 | Step 622546427 / 633280000 | TPS 4872.03 | ETA 00:36:43
Time 29:00:24 | Step 622598744 / 633280000 | TPS 5231.62 | ETA 00:34:01
Time 29:00:34 | Step 622655757 / 633280000 | TPS 5701.21 | ETA 00:31:03
Time 29:00:44 | Step 622706728 / 633280000 | TPS 5096.91 | ETA 00:34:34
Time 29:00:54 | Step 622756623 / 633280000 | TPS 4989.49 | ETA 00:35:09
Time 29:01:04 | Step 622805536 / 633280000 | TPS 4891.25 | ETA 00:35:41
Time 29:01:14 | Step 622859739 / 633280000 | TPS 5420.3 | ETA 00:32:02
Time 29:01:24 | Step 622911930 / 633280000 | TPS 5219.08 | ETA 00:33:06
Time 29:01:34 | Step 622968807 / 633280000 | TPS 5687.42 | ETA 00:30:12
Time 29:01:44 | Step 623024818 / 633280000 | TPS 5601.05 | ETA 00:30:30
Time 29:01:54 | Step 623081158 / 633280000 | TPS 5633.79 | ETA 00:30:10
Time 29:02:04 | Step 623138937 / 633280000 | TPS 5777.85 | ETA 00:29:15
Time 29:02:14 | Step 623194764 / 633280000 | TPS 5582.6 | ETA 00:30:06
Time 29:02:24 | Step 623250091 / 633280000 | TPS 5532.62 | ETA 00:30:12
Time 29:02:34 | Step 623307828 / 633280000 | TPS 5773.66 | ETA 00:28:47
Time 29:02:44 | Step 623365692 / 633280000 | TPS 5786.33 | ETA 00:28:33
Time 29:02:54 | Step 623423628 / 633280000 | TPS 5793.33 | ETA 00:28:21
Time 29:03:04 | Step 623485513 / 633280000 | TPS 6188.45 | ETA 00:26:22
Time 29:03:14 | Step 623550301 / 633280000 | TPS 6478.62 | ETA 00:25:01
Time 29:03:24 | Step 623616217 / 633280000 | TPS 6591.32 | ETA 00:24:26
Time 29:03:34 | Step 623680132 / 633280000 | TPS 6391.41 | ETA 00:25:01
Time 29:03:44 | Step 623740238 / 633280000 | TPS 6010.55 | ETA 00:26:27
Time 29:03:54 | Step 623797918 / 633280000 | TPS 5767.99 | ETA 00:27:23
Time 29:04:04 | Step 623859035 / 633280000 | TPS 6111.66 | ETA 00:25:41
Time 29:04:14 | Step 623921799 / 633280000 | TPS 6276.34 | ETA 00:24:51
Time 29:04:24 | Step 623983273 / 633280000 | TPS 6147.34 | ETA 00:25:12
Time 29:04:34 | Step 624041959 / 633280000 | TPS 5868.56 | ETA 00:26:14
Time 29:04:44 | Step 624103172 / 633280000 | TPS 6121.25 | ETA 00:24:59
Time 29:04:54 | Step 624163329 / 633280000 | TPS 6015.62 | ETA 00:25:15
Time 29:05:04 | Step 624217336 / 633280000 | TPS 5400.46 | ETA 00:27:58
Time 29:05:14 | Step 624282278 / 633280000 | TPS 6494.13 | ETA 00:23:05
Time 29:05:24 | Step 624342249 / 633280000 | TPS 5997.05 | ETA 00:24:50
Time 29:05:34 | Step 624404702 / 633280000 | TPS 6245.01 | ETA 00:23:41
Time 29:05:44 | Step 624458781 / 633280000 | TPS 5407.82 | ETA 00:27:11
Time 29:05:54 | Step 624515897 / 633280000 | TPS 5711.53 | ETA 00:25:34
Time 29:06:04 | Step 624574956 / 633280000 | TPS 5905.85 | ETA 00:24:33
Time 29:06:14 | Step 624633814 / 633280000 | TPS 5885.78 | ETA 00:24:28
Time 29:06:24 | Step 624694924 / 633280000 | TPS 6110.94 | ETA 00:23:24
Time 29:06:34 | Step 624757665 / 633280000 | TPS 6274.07 | ETA 00:22:38
Time 29:06:44 | Step 624824136 / 633280000 | TPS 6647.09 | ETA 00:21:12
Time 29:06:54 | Step 624886191 / 633280000 | TPS 6205.27 | ETA 00:22:32
Time 29:07:04 | Step 624945999 / 633280000 | TPS 5980.8 | ETA 00:23:13
Time 29:07:14 | Step 625004203 / 633280000 | TPS 5820.35 | ETA 00:23:41
Time 29:07:24 | Step 625066799 / 633280000 | TPS 6259.51 | ETA 00:21:52
Time 29:07:34 | Step 625125955 / 633280000 | TPS 5915.52 | ETA 00:22:58
Time 29:07:44 | Step 625182107 / 633280000 | TPS 5615.05 | ETA 00:24:02
Time 29:07:54 | Step 625231201 / 633280000 | TPS 4909.24 | ETA 00:27:19
Time 29:08:04 | Step 625284018 / 633280000 | TPS 5281.66 | ETA 00:25:13
Time 29:08:14 | Step 625343517 / 633280000 | TPS 5949.81 | ETA 00:22:13
Time 29:08:24 | Step 625394666 / 633280000 | TPS 5114.8 | ETA 00:25:41
Time 29:08:34 | Step 625451800 / 633280000 | TPS 5713.33 | ETA 00:22:50
Time 29:08:44 | Step 625505851 / 633280000 | TPS 5404.79 | ETA 00:23:58
Time 29:08:54 | Step 625560668 / 633280000 | TPS 5481.61 | ETA 00:23:28
Time 29:09:04 | Step 625611687 / 633280000 | TPS 5101.87 | ETA 00:25:03
Time 29:09:14 | Step 625660640 / 633280000 | TPS 4895.23 | ETA 00:25:56
Time 29:09:24 | Step 625710916 / 633280000 | TPS 5027.52 | ETA 00:25:05
Time 29:09:34 | Step 625761163 / 633280000 | TPS 5024.64 | ETA 00:24:56
Time 29:09:44 | Step 625816414 / 633280000 | TPS 5525.03 | ETA 00:22:30
Time 29:09:54 | Step 625874584 / 633280000 | TPS 5816.99 | ETA 00:21:13
Time 29:10:04 | Step 625932868 / 633280000 | TPS 5828.23 | ETA 00:21:00
Time 29:10:14 | Step 625993293 / 633280000 | TPS 6042.47 | ETA 00:20:05
Time 29:10:24 | Step 626049823 / 633280000 | TPS 5652.99 | ETA 00:21:19
Time 29:10:34 | Step 626099506 / 633280000 | TPS 4968.28 | ETA 00:24:05
Time 29:10:44 | Step 626149303 / 633280000 | TPS 4979.48 | ETA 00:23:52
Time 29:10:54 | Step 626209660 / 633280000 | TPS 6035.58 | ETA 00:19:31
Time 29:11:04 | Step 626275791 / 633280000 | TPS 6613.05 | ETA 00:17:39
Time 29:11:14 | Step 626342088 / 633280000 | TPS 6629.64 | ETA 00:17:26
Time 29:11:24 | Step 626407505 / 633280000 | TPS 6541.55 | ETA 00:17:30
Time 29:11:34 | Step 626470281 / 633280000 | TPS 6277.57 | ETA 00:18:04
Time 29:11:44 | Step 626538566 / 633280000 | TPS 6828.48 | ETA 00:16:27
Time 29:11:54 | Step 626606718 / 633280000 | TPS 6815.13 | ETA 00:16:19
Time 29:12:04 | Step 626675571 / 633280000 | TPS 6885.28 | ETA 00:15:59
Time 29:12:14 | Step 626738184 / 633280000 | TPS 6261.26 | ETA 00:17:24
Time 29:12:24 | Step 626804725 / 633280000 | TPS 6654.06 | ETA 00:16:13
Time 29:12:34 | Step 626871299 / 633280000 | TPS 6657.34 | ETA 00:16:02
Time 29:12:44 | Step 626937142 / 633280000 | TPS 6584.26 | ETA 00:16:03
Time 29:12:54 | Step 627006054 / 633280000 | TPS 6891.16 | ETA 00:15:10
Time 29:13:04 | Step 627075131 / 633280000 | TPS 6907.66 | ETA 00:14:58
Time 29:13:14 | Step 627142028 / 633280000 | TPS 6689.68 | ETA 00:15:17
Time 29:13:24 | Step 627209101 / 633280000 | TPS 6707.03 | ETA 00:15:05
Time 29:13:34 | Step 627277187 / 633280000 | TPS 6808.53 | ETA 00:14:41
Time 29:13:44 | Step 627346148 / 633280000 | TPS 6896.05 | ETA 00:14:20
Time 29:13:54 | Step 627413692 / 633280000 | TPS 6754.39 | ETA 00:14:28
Time 29:14:04 | Step 627480484 / 633280000 | TPS 6679.17 | ETA 00:14:28
Time 29:14:14 | Step 627545989 / 633280000 | TPS 6550.45 | ETA 00:14:35
Time 29:14:24 | Step 627611515 / 633280000 | TPS 6552.56 | ETA 00:14:25
Time 29:14:34 | Step 627676697 / 633280000 | TPS 6518.16 | ETA 00:14:19
Time 29:14:44 | Step 627739090 / 633280000 | TPS 6239.25 | ETA 00:14:48
Time 29:14:54 | Step 627808508 / 633280000 | TPS 6941.8 | ETA 00:13:08
Time 29:15:04 | Step 627875301 / 633280000 | TPS 6679.29 | ETA 00:13:29
Time 29:15:14 | Step 627942691 / 633280000 | TPS 6739 | ETA 00:13:12
Time 29:15:24 | Step 628008529 / 633280000 | TPS 6583.78 | ETA 00:13:20
Time 29:15:34 | Step 628075406 / 633280000 | TPS 6687.64 | ETA 00:12:58
Time 29:15:44 | Step 628140885 / 633280000 | TPS 6547.86 | ETA 00:13:04
Time 29:15:54 | Step 628207398 / 633280000 | TPS 6651.23 | ETA 00:12:42
Time 29:16:04 | Step 628276642 / 633280000 | TPS 6924.39 | ETA 00:12:02
Time 29:16:14 | Step 628345046 / 633280000 | TPS 6840.38 | ETA 00:12:01
Time 29:16:24 | Step 628412097 / 633280000 | TPS 6705.08 | ETA 00:12:06
Time 29:16:34 | Step 628477800 / 633280000 | TPS 6570.28 | ETA 00:12:10
Time 29:16:44 | Step 628541659 / 633280000 | TPS 6385.82 | ETA 00:12:22
Time 29:16:54 | Step 628610894 / 633280000 | TPS 6923.46 | ETA 00:11:14
Time 29:17:04 | Step 628681279 / 633280000 | TPS 7038.47 | ETA 00:10:53
Time 29:17:14 | Step 628744476 / 633280000 | TPS 6319.61 | ETA 00:11:57
Time 29:17:24 | Step 628806728 / 633280000 | TPS 6225.14 | ETA 00:11:58
Time 29:17:34 | Step 628871075 / 633280000 | TPS 6434.67 | ETA 00:11:25
Time 29:17:44 | Step 628932760 / 633280000 | TPS 6168.47 | ETA 00:11:44
Time 29:17:54 | Step 628993396 / 633280000 | TPS 6063.46 | ETA 00:11:46
Time 29:18:04 | Step 629054748 / 633280000 | TPS 6135.19 | ETA 00:11:28
Time 29:18:14 | Step 629118935 / 633280000 | TPS 6418.59 | ETA 00:10:48
Time 29:18:24 | Step 629186226 / 633280000 | TPS 6729.06 | ETA 00:10:08
Time 29:18:34 | Step 629252339 / 633280000 | TPS 6611.25 | ETA 00:10:09
Time 29:18:44 | Step 629317153 / 633280000 | TPS 6481.39 | ETA 00:10:11
Time 29:18:54 | Step 629379982 / 633280000 | TPS 6282.7 | ETA 00:10:20
Time 29:19:04 | Step 629442034 / 633280000 | TPS 6205.15 | ETA 00:10:18
Time 29:19:14 | Step 629504655 / 633280000 | TPS 6262.08 | ETA 00:10:02
Time 29:19:24 | Step 629567546 / 633280000 | TPS 6288.8 | ETA 00:09:50
Time 29:19:34 | Step 629630537 / 633280000 | TPS 6299.1 | ETA 00:09:39
Time 29:19:44 | Step 629692485 / 633280000 | TPS 6194.79 | ETA 00:09:39
Time 29:19:54 | Step 629754084 / 633280000 | TPS 6159.88 | ETA 00:09:32
Time 29:20:04 | Step 629815521 / 633280000 | TPS 6143.69 | ETA 00:09:23
Time 29:20:14 | Step 629871982 / 633280000 | TPS 5646.02 | ETA 00:10:03
Time 29:20:24 | Step 629928576 / 633280000 | TPS 5659.33 | ETA 00:09:52
Time 29:20:34 | Step 629984237 / 633280000 | TPS 5566.1 | ETA 00:09:52
Time 29:20:44 | Step 630042759 / 633280000 | TPS 5852.13 | ETA 00:09:13
Time 29:20:54 | Step 630099086 / 633280000 | TPS 5632.64 | ETA 00:09:24
Time 29:21:04 | Step 630160863 / 633280000 | TPS 6177.69 | ETA 00:08:24
Time 29:21:14 | Step 630216915 / 633280000 | TPS 5605.2 | ETA 00:09:06
Time 29:21:24 | Step 630275794 / 633280000 | TPS 5887.85 | ETA 00:08:30
Time 29:21:34 | Step 630330463 / 633280000 | TPS 5466.63 | ETA 00:08:59
Time 29:21:44 | Step 630386356 / 633280000 | TPS 5589.09 | ETA 00:08:37
Time 29:21:54 | Step 630440088 / 633280000 | TPS 5373.08 | ETA 00:08:48
Time 29:22:04 | Step 630492580 / 633280000 | TPS 5249.12 | ETA 00:08:51
Time 29:22:14 | Step 630544678 / 633280000 | TPS 5209.74 | ETA 00:08:45
Time 29:22:24 | Step 630601311 / 633280000 | TPS 5663.23 | ETA 00:07:52
Time 29:22:34 | Step 630652833 / 633280000 | TPS 5152.19 | ETA 00:08:29
Time 29:22:44 | Step 630712495 / 633280000 | TPS 5966.2 | ETA 00:07:10
Time 29:22:54 | Step 630768760 / 633280000 | TPS 5626.46 | ETA 00:07:26
Time 29:23:04 | Step 630821342 / 633280000 | TPS 5258.15 | ETA 00:07:47
Time 29:23:14 | Step 630873099 / 633280000 | TPS 5175.53 | ETA 00:07:45
Time 29:23:24 | Step 630928719 / 633280000 | TPS 5561.97 | ETA 00:07:02
Time 29:23:34 | Step 630987593 / 633280000 | TPS 5887.32 | ETA 00:06:29
Time 29:23:44 | Step 631045277 / 633280000 | TPS 5768.35 | ETA 00:06:27
Time 29:23:54 | Step 631100516 / 633280000 | TPS 5523.89 | ETA 00:06:34
Time 29:24:04 | Step 631153501 / 633280000 | TPS 5298.48 | ETA 00:06:41
Time 29:24:14 | Step 631207478 / 633280000 | TPS 5397.64 | ETA 00:06:23
Time 29:24:24 | Step 631258059 / 633280000 | TPS 5058.05 | ETA 00:06:39
Time 29:24:34 | Step 631309523 / 633280000 | TPS 5146.33 | ETA 00:06:22
Time 29:24:44 | Step 631361655 / 633280000 | TPS 5213.19 | ETA 00:06:07
Time 29:24:54 | Step 631418582 / 633280000 | TPS 5692.67 | ETA 00:05:26
Time 29:25:04 | Step 631474914 / 633280000 | TPS 5633.09 | ETA 00:05:20
Time 29:25:14 | Step 631529107 / 633280000 | TPS 5419.29 | ETA 00:05:23
Time 29:25:24 | Step 631582267 / 633280000 | TPS 5315.93 | ETA 00:05:19
Time 29:25:34 | Step 631639657 / 633280000 | TPS 5738.77 | ETA 00:04:45
Time 29:25:44 | Step 631695933 / 633280000 | TPS 5627.52 | ETA 00:04:41
Time 29:25:54 | Step 631755037 / 633280000 | TPS 5910.32 | ETA 00:04:18
Time 29:26:04 | Step 631816098 / 633280000 | TPS 6106.02 | ETA 00:03:59
Time 29:26:14 | Step 631880859 / 633280000 | TPS 6476.03 | ETA 00:03:36
Time 29:26:24 | Step 631944263 / 633280000 | TPS 6340.32 | ETA 00:03:30
Time 29:26:34 | Step 632011089 / 633280000 | TPS 6682.55 | ETA 00:03:09
Time 29:26:44 | Step 632074758 / 633280000 | TPS 6366.86 | ETA 00:03:09
Time 29:26:54 | Step 632139557 / 633280000 | TPS 6479.86 | ETA 00:02:55
Time 29:27:04 | Step 632203314 / 633280000 | TPS 6375.66 | ETA 00:02:48
Time 29:27:14 | Step 632265800 / 633280000 | TPS 6248.51 | ETA 00:02:42
Time 29:27:24 | Step 632326788 / 633280000 | TPS 6098.78 | ETA 00:02:36
Time 29:27:34 | Step 632390572 / 633280000 | TPS 6378.38 | ETA 00:02:19
Time 29:27:44 | Step 632452541 / 633280000 | TPS 6196.89 | ETA 00:02:13
Time 29:27:54 | Step 632514928 / 633280000 | TPS 6238.67 | ETA 00:02:02
Time 29:28:04 | Step 632575301 / 633280000 | TPS 6037.27 | ETA 00:01:56
Time 29:28:14 | Step 632636579 / 633280000 | TPS 6127.79 | ETA 00:01:45
Time 29:28:24 | Step 632694551 / 633280000 | TPS 5797.13 | ETA 00:01:40
Time 29:28:34 | Step 632755280 / 633280000 | TPS 6072.89 | ETA 00:01:26
Time 29:28:44 | Step 632819361 / 633280000 | TPS 6408.06 | ETA 00:01:11
Time 29:28:54 | Step 632881170 / 633280000 | TPS 6180.9 | ETA 00:01:04
Time 29:29:04 | Step 632948068 / 633280000 | TPS 6689.75 | ETA 00:00:49
Time 29:29:14 | Step 633013598 / 633280000 | TPS 6552.91 | ETA 00:00:40
Time 29:29:24 | Step 633077711 / 633280000 | TPS 6411.29 | ETA 00:00:31
Time 29:29:34 | Step 633143916 / 633280000 | TPS 6620.49 | ETA 00:00:20
Time 29:29:44 | Step 633206104 / 633280000 | TPS 6218.74 | ETA 00:00:11
Time 29:29:54 | Step 633271597 / 633280000 | TPS 6549.28 | ETA 00:00:01
Time 29:29:55 | Step 633280000 / 633280000 | TPS 7382.94 | ETA 00:00:00
Average TPS: 5964.55
---------
-- Neighborlist stats:
18675275 normal updates / 2110901 forced updates / 0 dangerous updates
n_neigh_min: 31 / n_neigh_max: 209 / n_neigh_avg: 96.8097
shortest rebuild period: 15
-- Cell list stats:
Dimension: 45, 45, 45
n_min    : 0 / n_max: 94 / n_avg: 0.0158573
** run complete **
