1
2
/groups/sbinlab/giulio/miniconda3/envs/hoomd/lib/python3.8/hoomd/__init__.py
HOOMD-blue 2.9.3 CUDA (9.0) SINGLE MPI TBB SSE SSE2 
Compiled: 02/18/2022
Copyright (c) 2009-2019 The Regents of the University of Michigan.
-----
You are using HOOMD-blue. Please cite the following:
* J A Anderson, J Glaser, and S C Glotzer. "HOOMD-blue: A Python package for
  high-performance molecular dynamics and hard particle Monte Carlo
  simulations", Computational Materials Science 173 (2020) 109363
-----
-----
You are using MPCD. Please cite the following:
* M P Howard, A Z Panagiotopoulos, and A Nikoubashman. "Efficient mesoscale
  hydrodynamics: Multiparticle collision dynamics with massively parallel GPU
  acceleration", Computer Physics Communications 230 (2018) 10--20
-----
CUDA driver version is insufficient for CUDA runtime version
HOOMD-blue is running on the CPU
** starting run **
Time 00:00:03 | Step 10000 / 10000 | TPS 3252.4 | ETA 00:00:00
Average TPS: 3252.26
---------
-- Neighborlist stats:
15 normal updates / 100 forced updates / 0 dangerous updates
n_neigh_min: 0 / n_neigh_max: 27 / n_neigh_avg: 11.0636
shortest rebuild period: 71
-- Cell list stats:
Dimension: 38, 38, 38
n_min    : 0 / n_max: 13 / n_avg: 0.00801866
** run complete **
** starting run **
Time 00:00:13 | Step 35142 / 59600000 | TPS 2514.12 | ETA 06:34:52
Time 00:00:23 | Step 54997 / 59600000 | TPS 1985.46 | ETA 08:19:50
Time 00:00:33 | Step 71429 / 59600000 | TPS 1643.2 | ETA 10:03:47
Time 00:00:43 | Step 85409 / 59600000 | TPS 1397.97 | ETA 11:49:32
Time 00:00:53 | Step 100045 / 59600000 | TPS 1463.55 | ETA 11:17:34
Time 00:01:03 | Step 115136 / 59600000 | TPS 1509.04 | ETA 10:56:58
Time 00:01:13 | Step 131243 / 59600000 | TPS 1610.68 | ETA 10:15:21
Time 00:01:23 | Step 144890 / 59600000 | TPS 1364.69 | ETA 12:06:06
Time 00:01:33 | Step 158576 / 59600000 | TPS 1368.55 | ETA 12:03:53
Time 00:01:43 | Step 171201 / 59600000 | TPS 1262.43 | ETA 13:04:34
Time 00:01:53 | Step 182046 / 59600000 | TPS 1084.47 | ETA 15:13:09
Time 00:02:03 | Step 192725 / 59600000 | TPS 1067.85 | ETA 15:27:12
Time 00:02:13 | Step 204504 / 59600000 | TPS 1177.9 | ETA 14:00:25
Time 00:02:23 | Step 219481 / 59600000 | TPS 1497.68 | ETA 11:00:48
Time 00:02:33 | Step 233818 / 59600000 | TPS 1433.6 | ETA 11:30:10
Time 00:02:43 | Step 245838 / 59600000 | TPS 1201.9 | ETA 13:43:03
Time 00:02:53 | Step 256493 / 59600000 | TPS 1065.48 | ETA 15:28:16
Time 00:03:03 | Step 269180 / 59600000 | TPS 1268.69 | ETA 12:59:25
Time 00:03:13 | Step 282660 / 59600000 | TPS 1347.97 | ETA 12:13:25
Time 00:03:23 | Step 294053 / 59600000 | TPS 1139.29 | ETA 14:27:35
Time 00:03:33 | Step 304890 / 59600000 | TPS 1083.62 | ETA 15:11:59
Time 00:03:43 | Step 315775 / 59600000 | TPS 1088.42 | ETA 15:07:47
Time 00:03:53 | Step 328449 / 59600000 | TPS 1267.33 | ETA 12:59:28
Time 00:04:03 | Step 340718 / 59600000 | TPS 1226.85 | ETA 13:25:01
Time 00:04:13 | Step 352454 / 59600000 | TPS 1173.54 | ETA 14:01:26
Time 00:04:23 | Step 363365 / 59600000 | TPS 1091.07 | ETA 15:04:52
Time 00:04:33 | Step 371457 / 59600000 | TPS 809.128 | ETA 20:20:00
Time 00:04:43 | Step 380716 / 59600000 | TPS 925.819 | ETA 17:46:04
Time 00:04:53 | Step 389649 / 59600000 | TPS 893.267 | ETA 18:24:45
Time 00:05:03 | Step 397563 / 59600000 | TPS 791.36 | ETA 20:46:50
Time 00:05:13 | Step 405089 / 59600000 | TPS 752.585 | ETA 21:50:55
Time 00:05:23 | Step 413438 / 59600000 | TPS 834.798 | ETA 19:41:39
Time 00:05:33 | Step 421682 / 59600000 | TPS 824.366 | ETA 19:56:26
Time 00:05:43 | Step 430008 / 59600000 | TPS 832.527 | ETA 19:44:32
Time 00:05:53 | Step 437706 / 59600000 | TPS 769.759 | ETA 21:20:58
Time 00:06:03 | Step 444971 / 59600000 | TPS 726.38 | ETA 22:37:18
Time 00:06:13 | Step 452252 / 59600000 | TPS 728.063 | ETA 22:33:59
Time 00:06:23 | Step 461790 / 59600000 | TPS 953.776 | ETA 17:13:24
Time 00:06:33 | Step 471278 / 59600000 | TPS 948.77 | ETA 17:18:41
Time 00:06:43 | Step 481802 / 59600000 | TPS 1052.35 | ETA 15:36:17
Time 00:06:53 | Step 492703 / 59600000 | TPS 1090 | ETA 15:03:46
Time 00:07:03 | Step 500876 / 59600000 | TPS 817.192 | ETA 20:05:19
Time 00:07:13 | Step 509318 / 59600000 | TPS 844.178 | ETA 19:26:37
Time 00:07:23 | Step 519070 / 59600000 | TPS 975.159 | ETA 16:49:45
Time 00:07:33 | Step 528503 / 59600000 | TPS 943.256 | ETA 17:23:45
Time 00:07:43 | Step 537580 / 59600000 | TPS 907.579 | ETA 18:04:36
Time 00:07:53 | Step 545341 / 59600000 | TPS 776.013 | ETA 21:08:20
Time 00:08:03 | Step 552713 / 59600000 | TPS 737.182 | ETA 22:14:58
Time 00:08:13 | Step 559785 / 59600000 | TPS 707.143 | ETA 23:11:31
Time 00:08:23 | Step 566152 / 59600000 | TPS 636.634 | ETA 25:45:28
Time 00:08:33 | Step 575341 / 59600000 | TPS 918.886 | ETA 17:50:35
Time 00:08:43 | Step 585379 / 59600000 | TPS 1003.71 | ETA 16:19:56
Time 00:08:53 | Step 595717 / 59600000 | TPS 1033.72 | ETA 15:51:19
Time 00:09:03 | Step 606544 / 59600000 | TPS 1082.67 | ETA 15:08:08
Time 00:09:13 | Step 616031 / 59600000 | TPS 948.629 | ETA 17:16:18
Time 00:09:23 | Step 625785 / 59600000 | TPS 975.335 | ETA 16:47:45
Time 00:09:33 | Step 635216 / 59600000 | TPS 943.04 | ETA 17:22:06
Time 00:09:43 | Step 643896 / 59600000 | TPS 867.948 | ETA 18:52:05
Time 00:09:53 | Step 653393 / 59600000 | TPS 949.66 | ETA 17:14:31
Time 00:10:03 | Step 662718 / 59600000 | TPS 932.489 | ETA 17:33:24
Time 00:10:13 | Step 673251 / 59600000 | TPS 1053.24 | ETA 15:32:28
Time 00:10:23 | Step 686256 / 59600000 | TPS 1300.5 | ETA 12:35:00
Time 00:10:33 | Step 697967 / 59600000 | TPS 1171.05 | ETA 13:58:18
Time 00:10:43 | Step 708682 / 59600000 | TPS 1071.45 | ETA 15:16:04
Time 00:10:53 | Step 717959 / 59600000 | TPS 927.634 | ETA 17:37:55
Time 00:11:03 | Step 727684 / 59600000 | TPS 972.439 | ETA 16:49:00
Time 00:11:13 | Step 738401 / 59600000 | TPS 1071.5 | ETA 15:15:33
Time 00:11:23 | Step 749679 / 59600000 | TPS 1127.72 | ETA 14:29:45
Time 00:11:33 | Step 760982 / 59600000 | TPS 1130.25 | ETA 14:27:38
Time 00:11:43 | Step 773300 / 59600000 | TPS 1231.73 | ETA 13:15:59
Time 00:11:53 | Step 785106 / 59600000 | TPS 1180.54 | ETA 13:50:20
Time 00:12:03 | Step 796514 / 59600000 | TPS 1140.72 | ETA 14:19:09
Time 00:12:13 | Step 808772 / 59600000 | TPS 1225.77 | ETA 13:19:22
Time 00:12:23 | Step 818650 / 59600000 | TPS 987.728 | ETA 16:31:51
Time 00:12:33 | Step 827997 / 59600000 | TPS 934.641 | ETA 17:28:01
Time 00:12:43 | Step 836894 / 59600000 | TPS 889.66 | ETA 18:20:51
Time 00:12:53 | Step 844183 / 59600000 | TPS 728.831 | ETA 22:23:36
Time 00:13:03 | Step 852010 / 59600000 | TPS 782.693 | ETA 20:50:58
Time 00:13:13 | Step 859958 / 59600000 | TPS 794.728 | ETA 20:31:52
Time 00:13:23 | Step 868146 / 59600000 | TPS 818.787 | ETA 19:55:30
Time 00:13:33 | Step 877673 / 59600000 | TPS 952.634 | ETA 17:07:22
Time 00:13:43 | Step 887977 / 59600000 | TPS 1030.36 | ETA 15:49:42
Time 00:13:53 | Step 898873 / 59600000 | TPS 1089.54 | ETA 14:57:56
Time 00:14:03 | Step 909508 / 59600000 | TPS 1063.48 | ETA 15:19:47
Time 00:14:13 | Step 919081 / 59600000 | TPS 957.267 | ETA 17:01:40
Time 00:14:23 | Step 928921 / 59600000 | TPS 983.94 | ETA 16:33:48
Time 00:14:33 | Step 938581 / 59600000 | TPS 965.978 | ETA 16:52:07
Time 00:14:43 | Step 949648 / 59600000 | TPS 1106.66 | ETA 14:43:17
Time 00:14:53 | Step 959307 / 59600000 | TPS 965.89 | ETA 16:51:51
Time 00:15:03 | Step 970682 / 59600000 | TPS 1137.48 | ETA 14:19:03
Time 00:15:13 | Step 983425 / 59600000 | TPS 1274.23 | ETA 12:46:41
Time 00:15:23 | Step 996424 / 59600000 | TPS 1299.89 | ETA 12:31:23
Time 00:15:33 | Step 1010459 / 59600000 | TPS 1403.46 | ETA 11:35:46
Time 00:15:43 | Step 1021947 / 59600000 | TPS 1148.75 | ETA 14:09:52
Time 00:15:53 | Step 1033999 / 59600000 | TPS 1205.19 | ETA 13:29:54
Time 00:16:03 | Step 1043502 / 59600000 | TPS 950.265 | ETA 17:07:01
Time 00:16:13 | Step 1052462 / 59600000 | TPS 895.937 | ETA 18:09:07
Time 00:16:23 | Step 1062928 / 59600000 | TPS 1046.51 | ETA 15:32:15
Time 00:16:33 | Step 1075501 / 59600000 | TPS 1257.1 | ETA 12:55:54
Time 00:16:43 | Step 1086893 / 59600000 | TPS 1139.19 | ETA 14:16:03
Time 00:16:53 | Step 1096378 / 59600000 | TPS 948.432 | ETA 17:08:04
Time 00:17:03 | Step 1106764 / 59600000 | TPS 1038.57 | ETA 15:38:41
Time 00:17:13 | Step 1117133 / 59600000 | TPS 1036.83 | ETA 15:40:05
Time 00:17:23 | Step 1127151 / 59600000 | TPS 1001.73 | ETA 16:12:51
Time 00:17:33 | Step 1137102 / 59600000 | TPS 995.03 | ETA 16:19:14
Time 00:17:43 | Step 1147181 / 59600000 | TPS 1007.85 | ETA 16:06:37
Time 00:17:53 | Step 1156616 / 59600000 | TPS 943.427 | ETA 17:12:27
Time 00:18:03 | Step 1164726 / 59600000 | TPS 810.943 | ETA 20:00:58
Time 00:18:13 | Step 1174382 / 59600000 | TPS 965.543 | ETA 16:48:30
Time 00:18:23 | Step 1185107 / 59600000 | TPS 1072.5 | ETA 15:07:46
Time 00:18:33 | Step 1196888 / 59600000 | TPS 1178.08 | ETA 13:46:14
Time 00:18:43 | Step 1207738 / 59600000 | TPS 1084.96 | ETA 14:56:59
Time 00:18:53 | Step 1218720 / 59600000 | TPS 1098.19 | ETA 14:46:01
Time 00:19:03 | Step 1229268 / 59600000 | TPS 1054.72 | ETA 15:22:22
Time 00:19:13 | Step 1239816 / 59600000 | TPS 1054.79 | ETA 15:22:08
Time 00:19:23 | Step 1250070 / 59600000 | TPS 1025.36 | ETA 15:48:26
Time 00:19:33 | Step 1260753 / 59600000 | TPS 1068.23 | ETA 15:10:13
Time 00:19:43 | Step 1272345 / 59600000 | TPS 1159.13 | ETA 13:58:40
Time 00:19:53 | Step 1282575 / 59600000 | TPS 1022.93 | ETA 15:50:10
Time 00:20:03 | Step 1292179 / 59600000 | TPS 960.369 | ETA 16:51:53
Time 00:20:13 | Step 1300970 / 59600000 | TPS 879.076 | ETA 18:25:18
Time 00:20:23 | Step 1308668 / 59600000 | TPS 769.704 | ETA 21:02:12
Time 00:20:33 | Step 1316014 / 59600000 | TPS 734.599 | ETA 22:02:21
Time 00:20:43 | Step 1323763 / 59600000 | TPS 774.817 | ETA 20:53:32
Time 00:20:53 | Step 1330415 / 59600000 | TPS 665.148 | ETA 24:20:03
Time 00:21:03 | Step 1337510 / 59600000 | TPS 709.43 | ETA 22:48:45
Time 00:21:13 | Step 1345253 / 59600000 | TPS 774.232 | ETA 20:54:01
Time 00:21:23 | Step 1352811 / 59600000 | TPS 755.755 | ETA 21:24:31
Time 00:21:33 | Step 1360379 / 59600000 | TPS 756.73 | ETA 21:22:42
Time 00:21:43 | Step 1368064 / 59600000 | TPS 768.41 | ETA 21:03:02
Time 00:21:53 | Step 1375411 / 59600000 | TPS 734.639 | ETA 22:00:56
Time 00:22:03 | Step 1382620 / 59600000 | TPS 720.821 | ETA 22:26:05
Time 00:22:13 | Step 1389060 / 59600000 | TPS 643.958 | ETA 25:06:35
Time 00:22:23 | Step 1396891 / 59600000 | TPS 783.096 | ETA 20:38:44
Time 00:22:33 | Step 1405064 / 59600000 | TPS 817.293 | ETA 19:46:44
Time 00:22:43 | Step 1412587 / 59600000 | TPS 752.21 | ETA 21:29:15
Time 00:22:53 | Step 1420111 / 59600000 | TPS 752.384 | ETA 21:28:47
Time 00:23:03 | Step 1428346 / 59600000 | TPS 823.442 | ETA 19:37:24
Time 00:23:13 | Step 1435211 / 59600000 | TPS 686.433 | ETA 23:32:14
Time 00:23:23 | Step 1442605 / 59600000 | TPS 739.348 | ETA 21:51:00
Time 00:23:33 | Step 1449736 / 59600000 | TPS 713.08 | ETA 22:39:07
Time 00:23:43 | Step 1457591 / 59600000 | TPS 785.439 | ETA 20:33:45
Time 00:23:53 | Step 1466199 / 59600000 | TPS 860.708 | ETA 18:45:41
Time 00:24:03 | Step 1474457 / 59600000 | TPS 825.713 | ETA 19:33:14
Time 00:24:13 | Step 1482591 / 59600000 | TPS 813.397 | ETA 19:50:50
Time 00:24:23 | Step 1490817 / 59600000 | TPS 822.523 | ETA 19:37:27
Time 00:24:33 | Step 1498720 / 59600000 | TPS 790.272 | ETA 20:25:20
Time 00:24:43 | Step 1506452 / 59600000 | TPS 773.15 | ETA 20:52:18
Time 00:24:53 | Step 1513550 / 59600000 | TPS 709.734 | ETA 22:44:02
Time 00:25:03 | Step 1520930 / 59600000 | TPS 737.911 | ETA 21:51:47
Time 00:25:13 | Step 1527819 / 59600000 | TPS 688.876 | ETA 23:24:59
Time 00:25:23 | Step 1534389 / 59600000 | TPS 656.952 | ETA 24:33:06
Time 00:25:33 | Step 1541428 / 59600000 | TPS 703.895 | ETA 22:54:41
Time 00:25:43 | Step 1549490 / 59600000 | TPS 806.114 | ETA 20:00:12
Time 00:25:53 | Step 1557254 / 59600000 | TPS 776.345 | ETA 20:46:04
Time 00:26:03 | Step 1565334 / 59600000 | TPS 807.955 | ETA 19:57:09
Time 00:26:13 | Step 1573728 / 59600000 | TPS 839.33 | ETA 19:12:14
Time 00:26:23 | Step 1580913 / 59600000 | TPS 718.415 | ETA 22:25:59
Time 00:26:33 | Step 1587295 / 59600000 | TPS 638.131 | ETA 25:15:10
Time 00:26:43 | Step 1593924 / 59600000 | TPS 662.871 | ETA 24:18:27
Time 00:26:53 | Step 1602326 / 59600000 | TPS 840.177 | ETA 19:10:30
Time 00:27:03 | Step 1610339 / 59600000 | TPS 801.068 | ETA 20:06:30
Time 00:27:13 | Step 1617576 / 59600000 | TPS 723.629 | ETA 22:15:27
Time 00:27:23 | Step 1625205 / 59600000 | TPS 762.889 | ETA 21:06:33
Time 00:27:33 | Step 1632047 / 59600000 | TPS 684.184 | ETA 23:32:05
Time 00:27:43 | Step 1639301 / 59600000 | TPS 725.328 | ETA 22:11:49
Time 00:27:53 | Step 1647227 / 59600000 | TPS 792.584 | ETA 20:18:38
Time 00:28:03 | Step 1654838 / 59600000 | TPS 760.966 | ETA 21:09:06
Time 00:28:13 | Step 1661157 / 59600000 | TPS 631.88 | ETA 25:28:12
Time 00:28:23 | Step 1666415 / 59600000 | TPS 525.759 | ETA 30:36:30
Time 00:28:33 | Step 1672691 / 59600000 | TPS 627.514 | ETA 25:38:32
Time 00:28:43 | Step 1678788 / 59600000 | TPS 609.697 | ETA 26:23:20
Time 00:28:53 | Step 1684857 / 59600000 | TPS 606.846 | ETA 26:30:36
Time 00:29:03 | Step 1690277 / 59600000 | TPS 541.992 | ETA 29:40:46
Time 00:29:13 | Step 1695332 / 59600000 | TPS 505.499 | ETA 31:49:09
Time 00:29:23 | Step 1701344 / 59600000 | TPS 601.183 | ETA 26:45:07
Time 00:29:33 | Step 1709730 / 59600000 | TPS 838.58 | ETA 19:10:33
Time 00:29:43 | Step 1718257 / 59600000 | TPS 852.632 | ETA 18:51:25
Time 00:29:53 | Step 1725917 / 59600000 | TPS 765.999 | ETA 20:59:13
Time 00:30:03 | Step 1732520 / 59600000 | TPS 660.223 | ETA 24:20:48
Time 00:30:13 | Step 1739288 / 59600000 | TPS 676.728 | ETA 23:45:00
Time 00:30:23 | Step 1745270 / 59600000 | TPS 598.165 | ETA 26:52:00
Time 00:30:33 | Step 1751791 / 59600000 | TPS 652.066 | ETA 24:38:35
Time 00:30:43 | Step 1760466 / 59600000 | TPS 867.445 | ETA 18:31:18
Time 00:30:53 | Step 1769346 / 59600000 | TPS 887.981 | ETA 18:05:26
Time 00:31:03 | Step 1777432 / 59600000 | TPS 808.521 | ETA 19:51:56
Time 00:31:13 | Step 1785874 / 59600000 | TPS 844.121 | ETA 19:01:30
Time 00:31:23 | Step 1795326 / 59600000 | TPS 945.193 | ETA 16:59:16
Time 00:31:33 | Step 1802743 / 59600000 | TPS 741.611 | ETA 21:38:54
Time 00:31:43 | Step 1810856 / 59600000 | TPS 811.269 | ETA 19:47:13
Time 00:31:53 | Step 1821606 / 59600000 | TPS 1074.95 | ETA 14:55:50
Time 00:32:03 | Step 1831425 / 59600000 | TPS 981.812 | ETA 16:20:38
Time 00:32:13 | Step 1841060 / 59600000 | TPS 963.491 | ETA 16:39:07
Time 00:32:23 | Step 1850256 / 59600000 | TPS 919.577 | ETA 17:26:40
Time 00:32:33 | Step 1859935 / 59600000 | TPS 967.84 | ETA 16:34:18
Time 00:32:43 | Step 1869710 / 59600000 | TPS 977.432 | ETA 16:24:23
Time 00:32:53 | Step 1880071 / 59600000 | TPS 1036.06 | ETA 15:28:31
Time 00:33:03 | Step 1891492 / 59600000 | TPS 1142.06 | ETA 14:02:10
Time 00:33:13 | Step 1901864 / 59600000 | TPS 1037.15 | ETA 15:27:11
Time 00:33:23 | Step 1909538 / 59600000 | TPS 767.364 | ETA 20:53:00
Time 00:33:33 | Step 1917029 / 59600000 | TPS 749.09 | ETA 21:23:24
Time 00:33:43 | Step 1927449 / 59600000 | TPS 1041.98 | ETA 15:22:28
Time 00:33:53 | Step 1938897 / 59600000 | TPS 1144.75 | ETA 13:59:30
Time 00:34:03 | Step 1950477 / 59600000 | TPS 1157.94 | ETA 13:49:46
Time 00:34:13 | Step 1963276 / 59600000 | TPS 1279.81 | ETA 12:30:35
Time 00:34:23 | Step 1974926 / 59600000 | TPS 1164.89 | ETA 13:44:28
Time 00:34:33 | Step 1986507 / 59600000 | TPS 1158.07 | ETA 13:49:09
Time 00:34:43 | Step 2001671 / 59600000 | TPS 1516.39 | ETA 10:33:03
Time 00:34:53 | Step 2015297 / 59600000 | TPS 1362.51 | ETA 11:44:23
Time 00:35:03 | Step 2029597 / 59600000 | TPS 1429.92 | ETA 11:11:01
Time 00:35:13 | Step 2044147 / 59600000 | TPS 1454.91 | ETA 10:59:19
Time 00:35:23 | Step 2057890 / 59600000 | TPS 1374.26 | ETA 11:37:51
Time 00:35:33 | Step 2072555 / 59600000 | TPS 1466.45 | ETA 10:53:49
Time 00:35:43 | Step 2087629 / 59600000 | TPS 1507.31 | ETA 10:35:55
Time 00:35:53 | Step 2102570 / 59600000 | TPS 1494.02 | ETA 10:41:25
Time 00:36:03 | Step 2117166 / 59600000 | TPS 1459.55 | ETA 10:56:23
Time 00:36:13 | Step 2131315 / 59600000 | TPS 1414.89 | ETA 11:16:57
Time 00:36:23 | Step 2143230 / 59600000 | TPS 1191.47 | ETA 13:23:43
Time 00:36:33 | Step 2153224 / 59600000 | TPS 999.39 | ETA 15:58:01
Time 00:36:43 | Step 2163198 / 59600000 | TPS 997.353 | ETA 15:59:49
Time 00:36:53 | Step 2173193 / 59600000 | TPS 999.416 | ETA 15:57:40
Time 00:37:03 | Step 2183812 / 59600000 | TPS 1061.83 | ETA 15:01:12
Time 00:37:13 | Step 2196747 / 59600000 | TPS 1293.41 | ETA 12:19:41
Time 00:37:23 | Step 2207347 / 59600000 | TPS 1059.93 | ETA 15:02:27
Time 00:37:33 | Step 2217872 / 59600000 | TPS 1052.33 | ETA 15:08:48
Time 00:37:43 | Step 2227992 / 59600000 | TPS 1011.98 | ETA 15:44:52
Time 00:37:53 | Step 2238446 / 59600000 | TPS 1045.33 | ETA 15:14:34
Time 00:38:03 | Step 2248890 / 59600000 | TPS 1044.37 | ETA 15:15:14
Time 00:38:13 | Step 2261501 / 59600000 | TPS 1260.98 | ETA 12:37:51
Time 00:38:23 | Step 2274301 / 59600000 | TPS 1279.87 | ETA 12:26:30
Time 00:38:33 | Step 2289038 / 59600000 | TPS 1473.62 | ETA 10:48:11
Time 00:38:43 | Step 2303794 / 59600000 | TPS 1475.58 | ETA 10:47:09
Time 00:38:53 | Step 2317002 / 59600000 | TPS 1320.79 | ETA 12:02:50
Time 00:39:03 | Step 2331005 / 59600000 | TPS 1400.25 | ETA 11:21:39
Time 00:39:13 | Step 2345684 / 59600000 | TPS 1467.84 | ETA 10:50:05
Time 00:39:23 | Step 2358388 / 59600000 | TPS 1270.31 | ETA 12:31:01
Time 00:39:33 | Step 2369396 / 59600000 | TPS 1100.74 | ETA 14:26:32
Time 00:39:43 | Step 2380244 / 59600000 | TPS 1084.76 | ETA 14:39:08
Time 00:39:53 | Step 2390650 / 59600000 | TPS 1040.58 | ETA 15:16:18
Time 00:40:03 | Step 2401543 / 59600000 | TPS 1089.29 | ETA 14:35:09
Time 00:40:13 | Step 2412287 / 59600000 | TPS 1074.31 | ETA 14:47:12
Time 00:40:23 | Step 2422355 / 59600000 | TPS 1006.73 | ETA 15:46:35
Time 00:40:33 | Step 2432913 / 59600000 | TPS 1055.78 | ETA 15:02:26
Time 00:40:43 | Step 2444103 / 59600000 | TPS 1118.97 | ETA 14:11:18
Time 00:40:53 | Step 2454443 / 59600000 | TPS 1033.96 | ETA 15:21:08
Time 00:41:03 | Step 2464673 / 59600000 | TPS 1022.95 | ETA 15:30:53
Time 00:41:13 | Step 2474274 / 59600000 | TPS 960.045 | ETA 16:31:43
Time 00:41:23 | Step 2485308 / 59600000 | TPS 1103.35 | ETA 14:22:44
Time 00:41:33 | Step 2497227 / 59600000 | TPS 1191.87 | ETA 13:18:30
Time 00:41:43 | Step 2508086 / 59600000 | TPS 1085.82 | ETA 14:36:19
Time 00:41:53 | Step 2518482 / 59600000 | TPS 1039.56 | ETA 15:15:09
Time 00:42:03 | Step 2528047 / 59600000 | TPS 956.48 | ETA 16:34:28
Time 00:42:13 | Step 2538811 / 59600000 | TPS 1076.37 | ETA 14:43:32
Time 00:42:23 | Step 2550392 / 59600000 | TPS 1158.03 | ETA 13:41:04
Time 00:42:33 | Step 2561758 / 59600000 | TPS 1136.52 | ETA 13:56:26
Time 00:42:43 | Step 2572350 / 59600000 | TPS 1059.1 | ETA 14:57:25
Time 00:42:53 | Step 2582122 / 59600000 | TPS 977.129 | ETA 16:12:32
Time 00:43:03 | Step 2593134 / 59600000 | TPS 1101.12 | ETA 14:22:51
Time 00:43:13 | Step 2604125 / 59600000 | TPS 1099.05 | ETA 14:24:19
Time 00:43:23 | Step 2616136 / 59600000 | TPS 1201.09 | ETA 13:10:43
Time 00:43:33 | Step 2626930 / 59600000 | TPS 1079.33 | ETA 14:39:45
Time 00:43:43 | Step 2637459 / 59600000 | TPS 1052.87 | ETA 15:01:41
Time 00:43:53 | Step 2649202 / 59600000 | TPS 1174.28 | ETA 13:28:18
Time 00:44:03 | Step 2660076 / 59600000 | TPS 1087.33 | ETA 14:32:46
Time 00:44:13 | Step 2670689 / 59600000 | TPS 1061.22 | ETA 14:54:04
Time 00:44:23 | Step 2681519 / 59600000 | TPS 1082.98 | ETA 14:35:57
Time 00:44:33 | Step 2692375 / 59600000 | TPS 1085.54 | ETA 14:33:43
Time 00:44:43 | Step 2702280 / 59600000 | TPS 990.437 | ETA 15:57:27
Time 00:44:53 | Step 2711056 / 59600000 | TPS 877.521 | ETA 18:00:29
Time 00:45:03 | Step 2720566 / 59600000 | TPS 950.949 | ETA 16:36:53
Time 00:45:13 | Step 2730890 / 59600000 | TPS 1032.37 | ETA 15:18:06
Time 00:45:23 | Step 2740140 / 59600000 | TPS 924.952 | ETA 17:04:33
Time 00:45:33 | Step 2748491 / 59600000 | TPS 835.096 | ETA 18:54:37
Time 00:45:43 | Step 2756952 / 59600000 | TPS 846.057 | ETA 18:39:45
Time 00:45:53 | Step 2764907 / 59600000 | TPS 795.451 | ETA 19:50:50
Time 00:46:03 | Step 2774269 / 59600000 | TPS 936.184 | ETA 16:51:39
Time 00:46:13 | Step 2785283 / 59600000 | TPS 1101.38 | ETA 14:19:44
Time 00:46:23 | Step 2795769 / 59600000 | TPS 1048.54 | ETA 15:02:54
Time 00:46:33 | Step 2806454 / 59600000 | TPS 1068.47 | ETA 14:45:53
Time 00:46:43 | Step 2817911 / 59600000 | TPS 1145.69 | ETA 13:46:01
Time 00:46:53 | Step 2827496 / 59600000 | TPS 958.405 | ETA 16:27:16
Time 00:47:03 | Step 2837894 / 59600000 | TPS 1039.72 | ETA 15:09:53
Time 00:47:13 | Step 2849056 / 59600000 | TPS 1116.15 | ETA 14:07:25
Time 00:47:23 | Step 2860330 / 59600000 | TPS 1127.3 | ETA 13:58:52
Time 00:47:33 | Step 2872180 / 59600000 | TPS 1184.92 | ETA 13:17:54
Time 00:47:43 | Step 2882451 / 59600000 | TPS 1027.06 | ETA 15:20:23
Time 00:47:53 | Step 2892281 / 59600000 | TPS 982.943 | ETA 16:01:31
Time 00:48:03 | Step 2901380 / 59600000 | TPS 909.811 | ETA 17:18:39
Time 00:48:13 | Step 2910052 / 59600000 | TPS 867.127 | ETA 18:09:36
Time 00:48:23 | Step 2918503 / 59600000 | TPS 845.057 | ETA 18:37:54
Time 00:48:33 | Step 2925942 / 59600000 | TPS 743.865 | ETA 21:09:48
Time 00:48:43 | Step 2934035 / 59600000 | TPS 809.299 | ETA 19:26:58
Time 00:48:53 | Step 2944216 / 59600000 | TPS 1018.04 | ETA 15:27:31
Time 00:49:03 | Step 2956589 / 59600000 | TPS 1237.22 | ETA 12:43:02
Time 00:49:13 | Step 2968857 / 59600000 | TPS 1226.8 | ETA 12:49:21
Time 00:49:23 | Step 2981092 / 59600000 | TPS 1223.41 | ETA 12:51:19
Time 00:49:33 | Step 2991598 / 59600000 | TPS 1050.59 | ETA 14:58:02
Time 00:49:43 | Step 3001442 / 59600000 | TPS 984.358 | ETA 15:58:17
Time 00:49:53 | Step 3014049 / 59600000 | TPS 1260.62 | ETA 12:28:07
Time 00:50:03 | Step 3025611 / 59600000 | TPS 1156.15 | ETA 13:35:33
Time 00:50:13 | Step 3036932 / 59600000 | TPS 1132.07 | ETA 13:52:44
Time 00:50:23 | Step 3048290 / 59600000 | TPS 1135.79 | ETA 13:49:50
Time 00:50:33 | Step 3058667 / 59600000 | TPS 1037.61 | ETA 15:08:11
Time 00:50:43 | Step 3068869 / 59600000 | TPS 1020.19 | ETA 15:23:32
Time 00:50:53 | Step 3077136 / 59600000 | TPS 826.626 | ETA 18:59:37
Time 00:51:03 | Step 3084862 / 59600000 | TPS 772.567 | ETA 20:19:12
Time 00:51:13 | Step 3093044 / 59600000 | TPS 818.129 | ETA 19:11:08
Time 00:51:23 | Step 3103239 / 59600000 | TPS 1019.42 | ETA 15:23:40
Time 00:51:33 | Step 3114052 / 59600000 | TPS 1081.24 | ETA 14:30:41
Time 00:51:43 | Step 3125991 / 59600000 | TPS 1193.88 | ETA 13:08:22
Time 00:51:53 | Step 3137767 / 59600000 | TPS 1177.58 | ETA 13:19:07
Time 00:52:03 | Step 3149330 / 59600000 | TPS 1156.28 | ETA 13:33:41
Time 00:52:13 | Step 3161024 / 59600000 | TPS 1169.32 | ETA 13:24:26
Time 00:52:23 | Step 3171503 / 59600000 | TPS 1047.89 | ETA 14:57:29
Time 00:52:33 | Step 3179656 / 59600000 | TPS 815.215 | ETA 19:13:29
Time 00:52:43 | Step 3188700 / 59600000 | TPS 904.356 | ETA 17:19:37
Time 00:52:53 | Step 3198573 / 59600000 | TPS 987.272 | ETA 15:52:08
Time 00:53:03 | Step 3208546 / 59600000 | TPS 997.22 | ETA 15:42:28
Time 00:53:13 | Step 3218192 / 59600000 | TPS 964.545 | ETA 16:14:14
Time 00:53:23 | Step 3229445 / 59600000 | TPS 1125.3 | ETA 13:54:53
Time 00:53:33 | Step 3242041 / 59600000 | TPS 1259.59 | ETA 12:25:42
Time 00:53:43 | Step 3253317 / 59600000 | TPS 1127.6 | ETA 13:52:50
Time 00:53:53 | Step 3264933 / 59600000 | TPS 1161.6 | ETA 13:28:17
Time 00:54:03 | Step 3276001 / 59600000 | TPS 1106.7 | ETA 14:08:13
Time 00:54:13 | Step 3286982 / 59600000 | TPS 1098.02 | ETA 14:14:45
Time 00:54:23 | Step 3299108 / 59600000 | TPS 1212.51 | ETA 12:53:53
Time 00:54:33 | Step 3308994 / 59600000 | TPS 988.494 | ETA 15:49:06
Time 00:54:43 | Step 3316640 / 59600000 | TPS 764.512 | ETA 20:26:59
Time 00:54:53 | Step 3322995 / 59600000 | TPS 635.497 | ETA 24:35:55
Time 00:55:03 | Step 3329411 / 59600000 | TPS 641.547 | ETA 24:21:50
Time 00:55:13 | Step 3336382 / 59600000 | TPS 697.064 | ETA 22:25:15
Time 00:55:23 | Step 3342305 / 59600000 | TPS 592.244 | ETA 26:23:10
Time 00:55:33 | Step 3347860 / 59600000 | TPS 555.469 | ETA 28:07:49
Time 00:55:43 | Step 3355155 / 59600000 | TPS 729.421 | ETA 21:25:08
Time 00:55:53 | Step 3363021 / 59600000 | TPS 786.581 | ETA 19:51:35
Time 00:56:03 | Step 3370184 / 59600000 | TPS 716.282 | ETA 21:48:22
Time 00:56:13 | Step 3377477 / 59600000 | TPS 729.251 | ETA 21:24:56
Time 00:56:23 | Step 3384240 / 59600000 | TPS 676.267 | ETA 23:05:26
Time 00:56:33 | Step 3390196 / 59600000 | TPS 595.53 | ETA 26:13:06
Time 00:56:43 | Step 3396801 / 59600000 | TPS 660.289 | ETA 23:38:39
Time 00:56:53 | Step 3404126 / 59600000 | TPS 732.454 | ETA 21:18:42
Time 00:57:03 | Step 3411418 / 59600000 | TPS 729.126 | ETA 21:24:22
Time 00:57:13 | Step 3419197 / 59600000 | TPS 777.888 | ETA 20:03:42
Time 00:57:23 | Step 3427485 / 59600000 | TPS 828.788 | ETA 18:49:36
Time 00:57:33 | Step 3436164 / 59600000 | TPS 867.864 | ETA 17:58:34
Time 00:57:43 | Step 3443543 / 59600000 | TPS 737.888 | ETA 21:08:24
Time 00:57:53 | Step 3453002 / 59600000 | TPS 945.879 | ETA 16:29:19
Time 00:58:03 | Step 3462811 / 59600000 | TPS 980.883 | ETA 15:53:51
Time 00:58:13 | Step 3473986 / 59600000 | TPS 1117.49 | ETA 13:57:04
Time 00:58:23 | Step 3484374 / 59600000 | TPS 1038.78 | ETA 15:00:20
Time 00:58:33 | Step 3493066 / 59600000 | TPS 869.189 | ETA 17:55:50
Time 00:58:43 | Step 3502774 / 59600000 | TPS 970.741 | ETA 16:03:08
Time 00:58:53 | Step 3513775 / 59600000 | TPS 1100.05 | ETA 14:09:45
Time 00:59:03 | Step 3524352 / 59600000 | TPS 1057.65 | ETA 14:43:39
Time 00:59:13 | Step 3534691 / 59600000 | TPS 1033.89 | ETA 15:03:47
Time 00:59:23 | Step 3545535 / 59600000 | TPS 1084.34 | ETA 14:21:34
Time 00:59:33 | Step 3556711 / 59600000 | TPS 1117.56 | ETA 13:55:47
Time 00:59:43 | Step 3566823 / 59600000 | TPS 1011.2 | ETA 15:23:32
Time 00:59:53 | Step 3577611 / 59600000 | TPS 1078.76 | ETA 14:25:32
Time 01:00:03 | Step 3587642 / 59600000 | TPS 1003.05 | ETA 15:30:42
Time 01:00:13 | Step 3597594 / 59600000 | TPS 995.122 | ETA 15:37:56
Time 01:00:23 | Step 3606317 / 59600000 | TPS 872.288 | ETA 17:49:51
Time 01:00:33 | Step 3614881 / 59600000 | TPS 856.37 | ETA 18:09:34
Time 01:00:43 | Step 3624487 / 59600000 | TPS 960.51 | ETA 16:11:16
Time 01:00:53 | Step 3635561 / 59600000 | TPS 1107.2 | ETA 14:02:25
Time 01:01:03 | Step 3645110 / 59600000 | TPS 954.887 | ETA 16:16:38
Time 01:01:13 | Step 3652950 / 59600000 | TPS 783.976 | ETA 19:49:23
Time 01:01:23 | Step 3661300 / 59600000 | TPS 834.982 | ETA 18:36:33
Time 01:01:33 | Step 3670089 / 59600000 | TPS 878.872 | ETA 17:40:38
Time 01:01:43 | Step 3678480 / 59600000 | TPS 839.081 | ETA 18:30:46
Time 01:01:53 | Step 3687750 / 59600000 | TPS 926.984 | ETA 16:45:16
Time 01:02:03 | Step 3696564 / 59600000 | TPS 881.323 | ETA 17:37:11
Time 01:02:13 | Step 3708831 / 59600000 | TPS 1226.64 | ETA 12:39:24
Time 01:02:23 | Step 3720444 / 59600000 | TPS 1161.27 | ETA 13:21:59
Time 01:02:33 | Step 3729848 / 59600000 | TPS 940.331 | ETA 16:30:15
Time 01:02:43 | Step 3738879 / 59600000 | TPS 902.971 | ETA 17:11:03
Time 01:02:53 | Step 3748473 / 59600000 | TPS 959.314 | ETA 16:10:20
Time 01:03:03 | Step 3758498 / 59600000 | TPS 1002.46 | ETA 15:28:24
Time 01:03:13 | Step 3769308 / 59600000 | TPS 1080.94 | ETA 14:20:50
Time 01:03:23 | Step 3779659 / 59600000 | TPS 1035.06 | ETA 14:58:49
Time 01:03:33 | Step 3788100 / 59600000 | TPS 844.082 | ETA 18:22:01
Time 01:03:43 | Step 3797700 / 59600000 | TPS 959.977 | ETA 16:08:48
Time 01:03:53 | Step 3809065 / 59600000 | TPS 1136.41 | ETA 13:38:14
Time 01:04:03 | Step 3819659 / 59600000 | TPS 1059.36 | ETA 14:37:34
Time 01:04:13 | Step 3830881 / 59600000 | TPS 1122.2 | ETA 13:48:16
Time 01:04:23 | Step 3841128 / 59600000 | TPS 1024.62 | ETA 15:06:58
Time 01:04:33 | Step 3853813 / 59600000 | TPS 1268.49 | ETA 12:12:26
Time 01:04:43 | Step 3867371 / 59600000 | TPS 1355.8 | ETA 11:25:06
Time 01:04:53 | Step 3880535 / 59600000 | TPS 1316.32 | ETA 11:45:29
Time 01:05:03 | Step 3890162 / 59600000 | TPS 962.628 | ETA 16:04:32
Time 01:05:13 | Step 3900243 / 59600000 | TPS 1008.05 | ETA 15:20:55
Time 01:05:23 | Step 3911477 / 59600000 | TPS 1123.26 | ETA 13:46:17
Time 01:05:33 | Step 3922998 / 59600000 | TPS 1152.03 | ETA 13:25:29
Time 01:05:43 | Step 3935228 / 59600000 | TPS 1222.95 | ETA 12:38:36
Time 01:05:53 | Step 3946563 / 59600000 | TPS 1133.44 | ETA 13:38:21
Time 01:06:03 | Step 3958576 / 59600000 | TPS 1201.28 | ETA 12:51:58
Time 01:06:13 | Step 3972445 / 59600000 | TPS 1386.83 | ETA 11:08:31
Time 01:06:23 | Step 3986868 / 59600000 | TPS 1442.21 | ETA 10:42:41
Time 01:06:33 | Step 4000722 / 59600000 | TPS 1385.34 | ETA 11:08:54
Time 01:06:43 | Step 4014765 / 59600000 | TPS 1404.28 | ETA 10:59:42
Time 01:06:53 | Step 4029379 / 59600000 | TPS 1461.39 | ETA 10:33:45
Time 01:07:03 | Step 4043322 / 59600000 | TPS 1394.24 | ETA 11:04:07
Time 01:07:13 | Step 4055890 / 59600000 | TPS 1256.75 | ETA 12:16:36
Time 01:07:23 | Step 4067064 / 59600000 | TPS 1117.39 | ETA 13:48:18
Time 01:07:33 | Step 4077292 / 59600000 | TPS 1022.73 | ETA 15:04:48
Time 01:07:43 | Step 4087275 / 59600000 | TPS 998.272 | ETA 15:26:48
Time 01:07:53 | Step 4096579 / 59600000 | TPS 930.391 | ETA 16:34:16
Time 01:08:03 | Step 4105350 / 59600000 | TPS 877.045 | ETA 17:34:34
Time 01:08:13 | Step 4115039 / 59600000 | TPS 968.826 | ETA 15:54:30
Time 01:08:23 | Step 4124576 / 59600000 | TPS 953.684 | ETA 16:09:29
Time 01:08:33 | Step 4135776 / 59600000 | TPS 1119.97 | ETA 13:45:22
Time 01:08:43 | Step 4146627 / 59600000 | TPS 1085.06 | ETA 14:11:46
Time 01:08:53 | Step 4156204 / 59600000 | TPS 957.673 | ETA 16:04:54
Time 01:09:03 | Step 4165858 / 59600000 | TPS 965.387 | ETA 15:57:01
Time 01:09:13 | Step 4175582 / 59600000 | TPS 972.397 | ETA 15:49:57
Time 01:09:23 | Step 4188469 / 59600000 | TPS 1288.52 | ETA 11:56:44
Time 01:09:33 | Step 4203644 / 59600000 | TPS 1517.48 | ETA 10:08:25
Time 01:09:43 | Step 4217319 / 59600000 | TPS 1367.49 | ETA 11:14:59
Time 01:09:53 | Step 4230152 / 59600000 | TPS 1283.26 | ETA 11:59:07
Time 01:10:03 | Step 4241022 / 59600000 | TPS 1086.96 | ETA 14:08:50
Time 01:10:13 | Step 4252364 / 59600000 | TPS 1134.18 | ETA 13:33:19
Time 01:10:23 | Step 4262827 / 59600000 | TPS 1046.27 | ETA 14:41:29
Time 01:10:33 | Step 4272269 / 59600000 | TPS 944.16 | ETA 16:16:39
Time 01:10:43 | Step 4281528 / 59600000 | TPS 925.822 | ETA 16:35:50
Time 01:10:53 | Step 4291083 / 59600000 | TPS 955.475 | ETA 16:04:46
Time 01:11:03 | Step 4301343 / 59600000 | TPS 1026 | ETA 14:58:17
Time 01:11:13 | Step 4311095 / 59600000 | TPS 975.168 | ETA 15:44:56
Time 01:11:23 | Step 4321806 / 59600000 | TPS 1071.08 | ETA 14:20:09
Time 01:11:33 | Step 4329947 / 59600000 | TPS 813.998 | ETA 18:51:39
Time 01:11:43 | Step 4336739 / 59600000 | TPS 679.178 | ETA 22:36:07
Time 01:11:53 | Step 4343625 / 59600000 | TPS 688.529 | ETA 22:17:32
Time 01:12:03 | Step 4351414 / 59600000 | TPS 778.831 | ETA 19:42:17
Time 01:12:13 | Step 4361574 / 59600000 | TPS 1015.82 | ETA 15:06:18
Time 01:12:23 | Step 4373152 / 59600000 | TPS 1157.72 | ETA 13:15:02
Time 01:12:33 | Step 4383361 / 59600000 | TPS 1020.87 | ETA 15:01:27
Time 01:12:43 | Step 4392387 / 59600000 | TPS 902.576 | ETA 16:59:26
Time 01:12:53 | Step 4400506 / 59600000 | TPS 811.893 | ETA 18:53:08
Time 01:13:03 | Step 4408438 / 59600000 | TPS 793.179 | ETA 19:19:42
Time 01:13:13 | Step 4417775 / 59600000 | TPS 933.667 | ETA 16:25:02
Time 01:13:23 | Step 4429029 / 59600000 | TPS 1125.34 | ETA 13:37:06
Time 01:13:33 | Step 4440709 / 59600000 | TPS 1167.94 | ETA 13:07:07
Time 01:13:43 | Step 4453979 / 59600000 | TPS 1326.86 | ETA 11:32:41
Time 01:13:53 | Step 4469655 / 59600000 | TPS 1567.54 | ETA 09:46:10
Time 01:14:03 | Step 4483943 / 59600000 | TPS 1428.77 | ETA 10:42:55
Time 01:14:13 | Step 4497107 / 59600000 | TPS 1316.36 | ETA 11:37:39
Time 01:14:23 | Step 4509162 / 59600000 | TPS 1205.42 | ETA 12:41:42
Time 01:14:33 | Step 4520869 / 59600000 | TPS 1170.64 | ETA 13:04:10
Time 01:14:43 | Step 4532648 / 59600000 | TPS 1177.84 | ETA 12:59:12
Time 01:14:53 | Step 4544604 / 59600000 | TPS 1195.57 | ETA 12:47:29
Time 01:15:03 | Step 4557595 / 59600000 | TPS 1299.03 | ETA 11:46:11
Time 01:15:13 | Step 4569886 / 59600000 | TPS 1229.06 | ETA 12:26:14
Time 01:15:23 | Step 4581268 / 59600000 | TPS 1138.15 | ETA 13:25:40
Time 01:15:33 | Step 4592949 / 59600000 | TPS 1168.03 | ETA 13:04:53
Time 01:15:43 | Step 4603519 / 59600000 | TPS 1056.98 | ETA 14:27:11
Time 01:15:53 | Step 4614676 / 59600000 | TPS 1115.55 | ETA 13:41:29
Time 01:16:03 | Step 4625491 / 59600000 | TPS 1081.47 | ETA 14:07:13
Time 01:16:13 | Step 4638238 / 59600000 | TPS 1274.6 | ETA 11:58:40
Time 01:16:23 | Step 4650263 / 59600000 | TPS 1202.48 | ETA 12:41:36
Time 01:16:33 | Step 4664423 / 59600000 | TPS 1415.93 | ETA 10:46:38
Time 01:16:43 | Step 4678055 / 59600000 | TPS 1363.14 | ETA 11:11:30
Time 01:16:53 | Step 4690884 / 59600000 | TPS 1282.86 | ETA 11:53:22
Time 01:17:03 | Step 4705236 / 59600000 | TPS 1435.16 | ETA 10:37:29
Time 01:17:13 | Step 4717696 / 59600000 | TPS 1245.95 | ETA 12:14:08
Time 01:17:23 | Step 4732186 / 59600000 | TPS 1448.95 | ETA 10:31:07
Time 01:17:33 | Step 4746155 / 59600000 | TPS 1396.82 | ETA 10:54:30
Time 01:17:43 | Step 4763707 / 59600000 | TPS 1755.18 | ETA 08:40:42
Time 01:17:53 | Step 4780457 / 59600000 | TPS 1674.91 | ETA 09:05:29
Time 01:18:03 | Step 4794030 / 59600000 | TPS 1357.21 | ETA 11:13:01
Time 01:18:13 | Step 4807685 / 59600000 | TPS 1365.41 | ETA 11:08:48
Time 01:18:23 | Step 4820600 / 59600000 | TPS 1291.45 | ETA 11:46:56
Time 01:18:33 | Step 4831001 / 59600000 | TPS 1040.01 | ETA 14:37:42
Time 01:18:43 | Step 4841892 / 59600000 | TPS 1089.02 | ETA 13:58:01
Time 01:18:53 | Step 4852313 / 59600000 | TPS 1042.08 | ETA 14:35:36
Time 01:19:03 | Step 4863516 / 59600000 | TPS 1120.22 | ETA 13:34:22
Time 01:19:13 | Step 4874508 / 59600000 | TPS 1099.1 | ETA 13:49:51
Time 01:19:23 | Step 4884890 / 59600000 | TPS 1038.13 | ETA 14:38:25
Time 01:19:33 | Step 4894039 / 59600000 | TPS 914.874 | ETA 16:36:36
Time 01:19:43 | Step 4904125 / 59600000 | TPS 1008.55 | ETA 15:03:52
Time 01:19:53 | Step 4914890 / 59600000 | TPS 1076.5 | ETA 14:06:39
Time 01:20:03 | Step 4925386 / 59600000 | TPS 1049.52 | ETA 14:28:15
Time 01:20:13 | Step 4936162 / 59600000 | TPS 1077.53 | ETA 14:05:30
Time 01:20:23 | Step 4944594 / 59600000 | TPS 843.113 | ETA 18:00:25
Time 01:20:33 | Step 4952909 / 59600000 | TPS 831.454 | ETA 18:15:24
Time 01:20:43 | Step 4963323 / 59600000 | TPS 1041.39 | ETA 14:34:25
Time 01:20:53 | Step 4975446 / 59600000 | TPS 1212.22 | ETA 12:31:01
Time 01:21:03 | Step 4987786 / 59600000 | TPS 1233.89 | ETA 12:17:40
Time 01:21:13 | Step 4998630 / 59600000 | TPS 1084.33 | ETA 13:59:14
Time 01:21:23 | Step 5008092 / 59600000 | TPS 946.182 | ETA 16:01:37
Time 01:21:33 | Step 5017565 / 59600000 | TPS 947.272 | ETA 16:00:20
Time 01:21:43 | Step 5027838 / 59600000 | TPS 1027.29 | ETA 14:45:22
Time 01:21:53 | Step 5037375 / 59600000 | TPS 953.609 | ETA 15:53:36
Time 01:22:03 | Step 5045454 / 59600000 | TPS 807.854 | ETA 18:45:30
Time 01:22:13 | Step 5052849 / 59600000 | TPS 739.436 | ETA 20:29:28
Time 01:22:23 | Step 5062004 / 59600000 | TPS 915.487 | ETA 16:32:52
Time 01:22:33 | Step 5073823 / 59600000 | TPS 1181.85 | ETA 12:48:56
Time 01:22:43 | Step 5084530 / 59600000 | TPS 1070.61 | ETA 14:08:40
Time 01:22:53 | Step 5093713 / 59600000 | TPS 918.289 | ETA 16:29:16
Time 01:23:03 | Step 5101188 / 59600000 | TPS 747.454 | ETA 20:15:12
Time 01:23:13 | Step 5107785 / 59600000 | TPS 659.631 | ETA 22:56:50
Time 01:23:23 | Step 5113964 / 59600000 | TPS 617.832 | ETA 24:29:49
Time 01:23:33 | Step 5121105 / 59600000 | TPS 714.015 | ETA 21:11:39
Time 01:23:43 | Step 5128012 / 59600000 | TPS 690.674 | ETA 21:54:27
Time 01:23:53 | Step 5135157 / 59600000 | TPS 714.435 | ETA 21:10:34
Time 01:24:03 | Step 5142686 / 59600000 | TPS 752.852 | ETA 20:05:34
Time 01:24:13 | Step 5150712 / 59600000 | TPS 802.591 | ETA 18:50:41
Time 01:24:23 | Step 5160655 / 59600000 | TPS 994.261 | ETA 15:12:33
Time 01:24:33 | Step 5170497 / 59600000 | TPS 984.131 | ETA 15:21:47
Time 01:24:43 | Step 5178585 / 59600000 | TPS 808.76 | ETA 18:41:29
Time 01:24:53 | Step 5188176 / 59600000 | TPS 959.022 | ETA 15:45:36
Time 01:25:03 | Step 5197457 / 59600000 | TPS 928.021 | ETA 16:17:02
Time 01:25:13 | Step 5207093 / 59600000 | TPS 963.554 | ETA 15:40:50
Time 01:25:23 | Step 5214005 / 59600000 | TPS 691.144 | ETA 21:51:29
Time 01:25:33 | Step 5220428 / 59600000 | TPS 642.221 | ETA 23:31:14
Time 01:25:43 | Step 5228227 / 59600000 | TPS 779.876 | ETA 19:21:58
Time 01:25:53 | Step 5235488 / 59600000 | TPS 726.069 | ETA 20:47:55
Time 01:26:03 | Step 5243248 / 59600000 | TPS 775.947 | ETA 19:27:32
Time 01:26:13 | Step 5250746 / 59600000 | TPS 749.746 | ETA 20:08:10
Time 01:26:23 | Step 5257742 / 59600000 | TPS 699.509 | ETA 21:34:46
Time 01:26:33 | Step 5265629 / 59600000 | TPS 788.649 | ETA 19:08:15
Time 01:26:43 | Step 5275026 / 59600000 | TPS 939.7 | ETA 16:03:30
Time 01:26:53 | Step 5285656 / 59600000 | TPS 1062.91 | ETA 14:11:39
Time 01:27:03 | Step 5294086 / 59600000 | TPS 842.924 | ETA 17:53:45
Time 01:27:13 | Step 5300938 / 59600000 | TPS 685.158 | ETA 22:00:50
Time 01:27:23 | Step 5307758 / 59600000 | TPS 681.95 | ETA 22:06:53
Time 01:27:33 | Step 5314341 / 59600000 | TPS 658.206 | ETA 22:54:35
Time 01:27:43 | Step 5320797 / 59600000 | TPS 645.552 | ETA 23:21:21
Time 01:27:53 | Step 5329132 / 59600000 | TPS 833.478 | ETA 18:05:13
Time 01:28:03 | Step 5338518 / 59600000 | TPS 938.521 | ETA 16:03:35
Time 01:28:13 | Step 5348144 / 59600000 | TPS 962.548 | ETA 15:39:22
Time 01:28:23 | Step 5356871 / 59600000 | TPS 872.64 | ETA 17:15:59
Time 01:28:33 | Step 5365565 / 59600000 | TPS 869.32 | ETA 17:19:47
Time 01:28:43 | Step 5374011 / 59600000 | TPS 844.575 | ETA 17:50:05
Time 01:28:53 | Step 5381475 / 59600000 | TPS 746.318 | ETA 20:10:47
Time 01:29:03 | Step 5389476 / 59600000 | TPS 800.037 | ETA 18:49:20
Time 01:29:13 | Step 5398868 / 59600000 | TPS 939.127 | ETA 16:01:54
Time 01:29:23 | Step 5409734 / 59600000 | TPS 1086.43 | ETA 13:51:19
Time 01:29:33 | Step 5423700 / 59600000 | TPS 1396.59 | ETA 10:46:31
Time 01:29:43 | Step 5436311 / 59600000 | TPS 1261.09 | ETA 11:55:50
Time 01:29:53 | Step 5448651 / 59600000 | TPS 1234 | ETA 12:11:22
Time 01:30:03 | Step 5461133 / 59600000 | TPS 1248.13 | ETA 12:02:56
Time 01:30:13 | Step 5473838 / 59600000 | TPS 1270.32 | ETA 11:50:08
Time 01:30:23 | Step 5485749 / 59600000 | TPS 1191.02 | ETA 12:37:15
Time 01:30:33 | Step 5497348 / 59600000 | TPS 1159.87 | ETA 12:57:25
Time 01:30:43 | Step 5508071 / 59600000 | TPS 1072.21 | ETA 14:00:49
Time 01:30:53 | Step 5518000 / 59600000 | TPS 992.867 | ETA 15:07:50
Time 01:31:03 | Step 5527972 / 59600000 | TPS 997.051 | ETA 15:03:51
Time 01:31:13 | Step 5540062 / 59600000 | TPS 1208.93 | ETA 12:25:17
Time 01:31:23 | Step 5552075 / 59600000 | TPS 1201.21 | ETA 12:29:54
Time 01:31:33 | Step 5563430 / 59600000 | TPS 1135.45 | ETA 13:13:10
Time 01:31:43 | Step 5574029 / 59600000 | TPS 1059.9 | ETA 14:09:32
Time 01:31:53 | Step 5584989 / 59600000 | TPS 1095.92 | ETA 13:41:27
Time 01:32:03 | Step 5597360 / 59600000 | TPS 1237.1 | ETA 12:07:32
Time 01:32:13 | Step 5609184 / 59600000 | TPS 1182.37 | ETA 12:41:03
Time 01:32:23 | Step 5619356 / 59600000 | TPS 1017.15 | ETA 14:44:30
Time 01:32:33 | Step 5630201 / 59600000 | TPS 1084.31 | ETA 13:49:33
Time 01:32:43 | Step 5639895 / 59600000 | TPS 969.382 | ETA 15:27:44
Time 01:32:53 | Step 5649133 / 59600000 | TPS 923.776 | ETA 16:13:22
Time 01:33:03 | Step 5658526 / 59600000 | TPS 939.203 | ETA 15:57:13
Time 01:33:13 | Step 5667564 / 59600000 | TPS 903.797 | ETA 16:34:33
Time 01:33:23 | Step 5678647 / 59600000 | TPS 1108.28 | ETA 13:30:53
Time 01:33:33 | Step 5689955 / 59600000 | TPS 1130.71 | ETA 13:14:38
Time 01:33:43 | Step 5700597 / 59600000 | TPS 1064.17 | ETA 14:04:09
Time 01:33:53 | Step 5710037 / 59600000 | TPS 943.911 | ETA 15:51:32
Time 01:34:03 | Step 5720802 / 59600000 | TPS 1076.44 | ETA 13:54:13
Time 01:34:13 | Step 5730598 / 59600000 | TPS 979.537 | ETA 15:16:34
Time 01:34:23 | Step 5741963 / 59600000 | TPS 1136.42 | ETA 13:09:52
Time 01:34:33 | Step 5753063 / 59600000 | TPS 1109.92 | ETA 13:28:34
Time 01:34:43 | Step 5764498 / 59600000 | TPS 1143.44 | ETA 13:04:41
Time 01:34:53 | Step 5774661 / 59600000 | TPS 1016.29 | ETA 14:42:42
Time 01:35:03 | Step 5786135 / 59600000 | TPS 1147.32 | ETA 13:01:44
Time 01:35:13 | Step 5797695 / 59600000 | TPS 1155.93 | ETA 12:55:44
Time 01:35:23 | Step 5808784 / 59600000 | TPS 1108.84 | ETA 13:28:31
Time 01:35:33 | Step 5818102 / 59600000 | TPS 931.761 | ETA 16:02:00
Time 01:35:43 | Step 5826494 / 59600000 | TPS 839.182 | ETA 17:47:58
Time 01:35:53 | Step 5835289 / 59600000 | TPS 879.499 | ETA 16:58:51
Time 01:36:03 | Step 5846172 / 59600000 | TPS 1088.29 | ETA 13:43:12
Time 01:36:13 | Step 5856626 / 59600000 | TPS 1045.34 | ETA 14:16:52
Time 01:36:23 | Step 5867688 / 59600000 | TPS 1106.17 | ETA 13:29:34
Time 01:36:33 | Step 5878037 / 59600000 | TPS 1034.85 | ETA 14:25:12
Time 01:36:43 | Step 5889110 / 59600000 | TPS 1107.24 | ETA 13:28:28
Time 01:36:53 | Step 5901355 / 59600000 | TPS 1224.45 | ETA 12:10:55
Time 01:37:03 | Step 5911280 / 59600000 | TPS 992.471 | ETA 15:01:36
Time 01:37:13 | Step 5919370 / 59600000 | TPS 808.935 | ETA 18:25:59
Time 01:37:23 | Step 5926927 / 59600000 | TPS 755.625 | ETA 19:43:51
Time 01:37:33 | Step 5936039 / 59600000 | TPS 911.165 | ETA 16:21:35
Time 01:37:43 | Step 5946337 / 59600000 | TPS 1029.74 | ETA 14:28:24
Time 01:37:53 | Step 5957735 / 59600000 | TPS 1139.73 | ETA 13:04:25
Time 01:38:03 | Step 5968685 / 59600000 | TPS 1094.93 | ETA 13:36:21
Time 01:38:13 | Step 5978584 / 59600000 | TPS 989.827 | ETA 15:02:52
Time 01:38:23 | Step 5988625 / 59600000 | TPS 1004.07 | ETA 14:49:54
Time 01:38:33 | Step 6001959 / 59600000 | TPS 1333.32 | ETA 11:09:59
Time 01:38:43 | Step 6014656 / 59600000 | TPS 1269.65 | ETA 11:43:24
Time 01:38:53 | Step 6029553 / 59600000 | TPS 1489.62 | ETA 09:59:22
Time 01:39:03 | Step 6044552 / 59600000 | TPS 1499.87 | ETA 09:55:06
Time 01:39:13 | Step 6060320 / 59600000 | TPS 1576.72 | ETA 09:25:56
Time 01:39:23 | Step 6075374 / 59600000 | TPS 1505.38 | ETA 09:52:35
Time 01:39:33 | Step 6088511 / 59600000 | TPS 1313.62 | ETA 11:18:55
Time 01:39:43 | Step 6100177 / 59600000 | TPS 1166.56 | ETA 12:44:21
Time 01:39:53 | Step 6110558 / 59600000 | TPS 1038.06 | ETA 14:18:48
Time 01:40:03 | Step 6121333 / 59600000 | TPS 1077.36 | ETA 13:47:18
Time 01:40:13 | Step 6131701 / 59600000 | TPS 1036.65 | ETA 14:19:37
Time 01:40:23 | Step 6143159 / 59600000 | TPS 1145.74 | ETA 12:57:37
Time 01:40:33 | Step 6156916 / 59600000 | TPS 1375.65 | ETA 10:47:29
Time 01:40:43 | Step 6168841 / 59600000 | TPS 1192.48 | ETA 12:26:46
Time 01:40:53 | Step 6181407 / 59600000 | TPS 1256.53 | ETA 11:48:32
Time 01:41:03 | Step 6194219 / 59600000 | TPS 1281.12 | ETA 11:34:46
Time 01:41:13 | Step 6208000 / 59600000 | TPS 1378.07 | ETA 10:45:43
Time 01:41:23 | Step 6221005 / 59600000 | TPS 1300.4 | ETA 11:24:08
Time 01:41:33 | Step 6232599 / 59600000 | TPS 1159.3 | ETA 12:47:14
Time 01:41:43 | Step 6242392 / 59600000 | TPS 979.202 | ETA 15:08:10
Time 01:41:53 | Step 6251217 / 59600000 | TPS 882.405 | ETA 16:47:38
Time 01:42:03 | Step 6260665 / 59600000 | TPS 944.744 | ETA 15:40:59
Time 01:42:13 | Step 6269929 / 59600000 | TPS 926.32 | ETA 15:59:31
Time 01:42:23 | Step 6279918 / 59600000 | TPS 998.879 | ETA 14:49:39
Time 01:42:33 | Step 6290004 / 59600000 | TPS 1008.58 | ETA 14:40:56
Time 01:42:43 | Step 6301437 / 59600000 | TPS 1143.23 | ETA 12:57:00
Time 01:42:53 | Step 6310668 / 59600000 | TPS 923.03 | ETA 16:02:13
Time 01:43:03 | Step 6320484 / 59600000 | TPS 981.584 | ETA 15:04:39
Time 01:43:13 | Step 6331693 / 59600000 | TPS 1120.87 | ETA 13:12:04
Time 01:43:23 | Step 6344667 / 59600000 | TPS 1297.17 | ETA 11:24:14
Time 01:43:33 | Step 6354550 / 59600000 | TPS 988.238 | ETA 14:57:59
Time 01:43:43 | Step 6364324 / 59600000 | TPS 977.389 | ETA 15:07:47
Time 01:43:53 | Step 6375176 / 59600000 | TPS 1085.16 | ETA 13:37:27
Time 01:44:03 | Step 6385433 / 59600000 | TPS 1025.63 | ETA 14:24:44
Time 01:44:13 | Step 6396978 / 59600000 | TPS 1154.46 | ETA 12:48:04
Time 01:44:23 | Step 6407823 / 59600000 | TPS 1084.49 | ETA 13:37:28
Time 01:44:33 | Step 6416834 / 59600000 | TPS 901.075 | ETA 16:23:41
Time 01:44:43 | Step 6427467 / 59600000 | TPS 1063.28 | ETA 13:53:28
Time 01:44:53 | Step 6438691 / 59600000 | TPS 1122.34 | ETA 13:09:26
Time 01:45:03 | Step 6449617 / 59600000 | TPS 1092.6 | ETA 13:30:45
Time 01:45:13 | Step 6462373 / 59600000 | TPS 1275.56 | ETA 11:34:18
Time 01:45:23 | Step 6475693 / 59600000 | TPS 1331.93 | ETA 11:04:45
Time 01:45:33 | Step 6490023 / 59600000 | TPS 1432.96 | ETA 10:17:43
Time 01:45:43 | Step 6503793 / 59600000 | TPS 1376.96 | ETA 10:42:40
Time 01:45:53 | Step 6516250 / 59600000 | TPS 1245.63 | ETA 11:50:15
Time 01:46:03 | Step 6527707 / 59600000 | TPS 1145.69 | ETA 12:52:03
Time 01:46:13 | Step 6539311 / 59600000 | TPS 1160.35 | ETA 12:42:07
Time 01:46:23 | Step 6550064 / 59600000 | TPS 1075.27 | ETA 13:42:16
Time 01:46:33 | Step 6561253 / 59600000 | TPS 1118.83 | ETA 13:10:05
Time 01:46:43 | Step 6571886 / 59600000 | TPS 1063.24 | ETA 13:51:13
Time 01:46:53 | Step 6583094 / 59600000 | TPS 1120.66 | ETA 13:08:28
Time 01:47:03 | Step 6593433 / 59600000 | TPS 1033.69 | ETA 14:14:38
Time 01:47:13 | Step 6602694 / 59600000 | TPS 926.033 | ETA 15:53:50
Time 01:47:23 | Step 6612105 / 59600000 | TPS 941.065 | ETA 15:38:26
Time 01:47:33 | Step 6622221 / 59600000 | TPS 1011.52 | ETA 14:32:54
Time 01:47:43 | Step 6632567 / 59600000 | TPS 1034.49 | ETA 14:13:21
Time 01:47:53 | Step 6643088 / 59600000 | TPS 1052.03 | ETA 13:58:57
Time 01:48:03 | Step 6652909 / 59600000 | TPS 982.052 | ETA 14:58:34
Time 01:48:13 | Step 6665026 / 59600000 | TPS 1211.61 | ETA 12:08:09
Time 01:48:23 | Step 6677485 / 59600000 | TPS 1245.89 | ETA 11:47:57
Time 01:48:33 | Step 6687157 / 59600000 | TPS 967.184 | ETA 15:11:48
Time 01:48:43 | Step 6696209 / 59600000 | TPS 905.148 | ETA 16:14:07
Time 01:48:53 | Step 6706834 / 59600000 | TPS 1062.42 | ETA 13:49:45
Time 01:49:03 | Step 6717801 / 59600000 | TPS 1096.55 | ETA 13:23:46
Time 01:49:13 | Step 6727195 / 59600000 | TPS 939.366 | ETA 15:38:05
Time 01:49:23 | Step 6736169 / 59600000 | TPS 897.216 | ETA 16:21:59
Time 01:49:33 | Step 6745696 / 59600000 | TPS 952.669 | ETA 15:24:40
Time 01:49:43 | Step 6755223 / 59600000 | TPS 952.656 | ETA 15:24:30
Time 01:49:53 | Step 6764346 / 59600000 | TPS 912.25 | ETA 16:05:17
Time 01:50:03 | Step 6773880 / 59600000 | TPS 953.349 | ETA 15:23:31
Time 01:50:13 | Step 6784117 / 59600000 | TPS 1023.62 | ETA 14:19:57
Time 01:50:23 | Step 6794033 / 59600000 | TPS 991.531 | ETA 14:47:37
Time 01:50:33 | Step 6805553 / 59600000 | TPS 1151.92 | ETA 12:43:51
Time 01:50:43 | Step 6817633 / 59600000 | TPS 1207.96 | ETA 12:08:15
Time 01:50:53 | Step 6828394 / 59600000 | TPS 1076.02 | ETA 13:37:23
Time 01:51:03 | Step 6839413 / 59600000 | TPS 1101.89 | ETA 13:18:02
Time 01:51:13 | Step 6850260 / 59600000 | TPS 1084.65 | ETA 13:30:32
Time 01:51:23 | Step 6861613 / 59600000 | TPS 1135.27 | ETA 12:54:14
Time 01:51:33 | Step 6873305 / 59600000 | TPS 1169.13 | ETA 12:31:38
Time 01:51:43 | Step 6883238 / 59600000 | TPS 993.273 | ETA 14:44:33
Time 01:51:53 | Step 6893480 / 59600000 | TPS 1024.14 | ETA 14:17:43
Time 01:52:03 | Step 6903067 / 59600000 | TPS 958.656 | ETA 15:16:09
Time 01:52:13 | Step 6915455 / 59600000 | TPS 1238.78 | ETA 11:48:49
Time 01:52:23 | Step 6928332 / 59600000 | TPS 1287.62 | ETA 11:21:46
Time 01:52:33 | Step 6939283 / 59600000 | TPS 1095.02 | ETA 13:21:31
Time 01:52:43 | Step 6950685 / 59600000 | TPS 1140.18 | ETA 12:49:36
Time 01:52:53 | Step 6961911 / 59600000 | TPS 1122.51 | ETA 13:01:33
Time 01:53:03 | Step 6971901 / 59600000 | TPS 998.91 | ETA 14:38:05
Time 01:53:13 | Step 6983374 / 59600000 | TPS 1147.23 | ETA 12:44:23
Time 01:53:23 | Step 6994735 / 59600000 | TPS 1135.93 | ETA 12:51:50
Time 01:53:33 | Step 7004629 / 59600000 | TPS 989.189 | ETA 14:46:10
Time 01:53:43 | Step 7014305 / 59600000 | TPS 967.55 | ETA 15:05:49
Time 01:53:53 | Step 7023675 / 59600000 | TPS 936.969 | ETA 15:35:13
Time 01:54:03 | Step 7032231 / 59600000 | TPS 855.56 | ETA 17:04:02
Time 01:54:13 | Step 7041942 / 59600000 | TPS 971.027 | ETA 15:02:06
Time 01:54:23 | Step 7051535 / 59600000 | TPS 959.258 | ETA 15:13:00
Time 01:54:33 | Step 7061810 / 59600000 | TPS 1027.4 | ETA 14:12:17
Time 01:54:43 | Step 7071051 / 59600000 | TPS 924.059 | ETA 15:47:25
Time 01:54:53 | Step 7079756 / 59600000 | TPS 870.491 | ETA 16:45:34
Time 01:55:03 | Step 7089163 / 59600000 | TPS 940.658 | ETA 15:30:23
Time 01:55:13 | Step 7098456 / 59600000 | TPS 929.267 | ETA 15:41:37
Time 01:55:23 | Step 7110099 / 59600000 | TPS 1164.27 | ETA 12:31:24
Time 01:55:33 | Step 7122988 / 59600000 | TPS 1288.86 | ETA 11:18:35
Time 01:55:43 | Step 7133336 / 59600000 | TPS 1034.8 | ETA 14:05:02
Time 01:55:53 | Step 7143592 / 59600000 | TPS 1025.55 | ETA 14:12:29
Time 01:56:03 | Step 7154270 / 59600000 | TPS 1067.73 | ETA 13:38:38
Time 01:56:13 | Step 7164885 / 59600000 | TPS 1061.46 | ETA 13:43:18
Time 01:56:23 | Step 7174447 / 59600000 | TPS 956.133 | ETA 15:13:50
Time 01:56:33 | Step 7183513 / 59600000 | TPS 906.56 | ETA 16:03:39
Time 01:56:43 | Step 7193339 / 59600000 | TPS 982.572 | ETA 14:48:56
Time 01:56:53 | Step 7204906 / 59600000 | TPS 1156.68 | ETA 12:34:57
Time 01:57:03 | Step 7216294 / 59600000 | TPS 1138.72 | ETA 12:46:42
Time 01:57:13 | Step 7228362 / 59600000 | TPS 1206.65 | ETA 12:03:22
Time 01:57:23 | Step 7240935 / 59600000 | TPS 1257.28 | ETA 11:34:04
Time 01:57:33 | Step 7254138 / 59600000 | TPS 1320.21 | ETA 11:00:49
Time 01:57:43 | Step 7265130 / 59600000 | TPS 1099.12 | ETA 13:13:35
Time 01:57:53 | Step 7274747 / 59600000 | TPS 961.649 | ETA 15:06:52
Time 01:58:03 | Step 7283061 / 59600000 | TPS 831.296 | ETA 17:28:54
Time 01:58:13 | Step 7290598 / 59600000 | TPS 753.679 | ETA 19:16:45
Time 01:58:23 | Step 7297782 / 59600000 | TPS 718.364 | ETA 20:13:27
Time 01:58:33 | Step 7304813 / 59600000 | TPS 703.061 | ETA 20:39:42
Time 01:58:43 | Step 7315151 / 59600000 | TPS 1033.73 | ETA 14:02:58
Time 01:58:53 | Step 7324528 / 59600000 | TPS 937.602 | ETA 15:29:14
Time 01:59:03 | Step 7333805 / 59600000 | TPS 927.674 | ETA 15:39:01
Time 01:59:13 | Step 7343179 / 59600000 | TPS 937.378 | ETA 15:29:07
Time 01:59:23 | Step 7351787 / 59600000 | TPS 860.78 | ETA 16:51:38
Time 01:59:33 | Step 7359996 / 59600000 | TPS 820.887 | ETA 17:40:38
Time 01:59:43 | Step 7369992 / 59600000 | TPS 999.539 | ETA 14:30:54
Time 01:59:53 | Step 7380341 / 59600000 | TPS 1034.84 | ETA 14:01:01
Time 02:00:03 | Step 7389428 / 59600000 | TPS 908.681 | ETA 15:57:37
Time 02:00:13 | Step 7398889 / 59600000 | TPS 946.06 | ETA 15:19:37
Time 02:00:23 | Step 7408430 / 59600000 | TPS 954.031 | ETA 15:11:46
Time 02:00:33 | Step 7418524 / 59600000 | TPS 1009.33 | ETA 14:21:39
Time 02:00:43 | Step 7430242 / 59600000 | TPS 1171.75 | ETA 12:22:03
Time 02:00:53 | Step 7440834 / 59600000 | TPS 1059.17 | ETA 13:40:45
Time 02:01:03 | Step 7451051 / 59600000 | TPS 1021.64 | ETA 14:10:44
Time 02:01:13 | Step 7460102 / 59600000 | TPS 905.037 | ETA 16:00:10
Time 02:01:23 | Step 7469175 / 59600000 | TPS 907.21 | ETA 15:57:42
Time 02:01:33 | Step 7478347 / 59600000 | TPS 917.151 | ETA 15:47:09
Time 02:01:43 | Step 7487286 / 59600000 | TPS 893.892 | ETA 16:11:38
Time 02:01:53 | Step 7497369 / 59600000 | TPS 1008.29 | ETA 14:21:14
Time 02:02:03 | Step 7506332 / 59600000 | TPS 896.208 | ETA 16:08:46
Time 02:02:13 | Step 7515542 / 59600000 | TPS 920.997 | ETA 15:42:32
Time 02:02:23 | Step 7526911 / 59600000 | TPS 1136.88 | ETA 12:43:23
Time 02:02:33 | Step 7536766 / 59600000 | TPS 985.462 | ETA 14:40:31
Time 02:02:43 | Step 7548412 / 59600000 | TPS 1164.54 | ETA 12:24:57
Time 02:02:53 | Step 7560504 / 59600000 | TPS 1209.13 | ETA 11:57:18
Time 02:03:03 | Step 7571629 / 59600000 | TPS 1112.47 | ETA 12:59:28
Time 02:03:13 | Step 7582895 / 59600000 | TPS 1126.51 | ETA 12:49:35
Time 02:03:23 | Step 7595172 / 59600000 | TPS 1227.61 | ETA 11:46:02
Time 02:03:33 | Step 7608054 / 59600000 | TPS 1288.11 | ETA 11:12:43
Time 02:03:43 | Step 7620578 / 59600000 | TPS 1252.38 | ETA 11:31:44
Time 02:03:53 | Step 7633158 / 59600000 | TPS 1257.97 | ETA 11:28:30
Time 02:04:03 | Step 7645887 / 59600000 | TPS 1272.87 | ETA 11:20:16
Time 02:04:13 | Step 7656745 / 59600000 | TPS 1085.71 | ETA 13:17:22
Time 02:04:23 | Step 7667909 / 59600000 | TPS 1116.3 | ETA 12:55:21
Time 02:04:33 | Step 7677422 / 59600000 | TPS 951.261 | ETA 15:09:42
Time 02:04:43 | Step 7687521 / 59600000 | TPS 1009.82 | ETA 14:16:47
Time 02:04:53 | Step 7698207 / 59600000 | TPS 1068.53 | ETA 13:29:32
Time 02:05:03 | Step 7709120 / 59600000 | TPS 1091.27 | ETA 13:12:30
Time 02:05:13 | Step 7719986 / 59600000 | TPS 1086.56 | ETA 13:15:47
Time 02:05:23 | Step 7732435 / 59600000 | TPS 1244.8 | ETA 11:34:27
Time 02:05:33 | Step 7743392 / 59600000 | TPS 1095.68 | ETA 13:08:48
Time 02:05:43 | Step 7754683 / 59600000 | TPS 1129.09 | ETA 12:45:17
Time 02:05:53 | Step 7768063 / 59600000 | TPS 1337.98 | ETA 10:45:39
Time 02:06:03 | Step 7782342 / 59600000 | TPS 1427.85 | ETA 10:04:50
Time 02:06:13 | Step 7793724 / 59600000 | TPS 1138.1 | ETA 12:38:39
Time 02:06:23 | Step 7804932 / 59600000 | TPS 1120.72 | ETA 12:50:15
Time 02:06:33 | Step 7816266 / 59600000 | TPS 1133.4 | ETA 12:41:28
Time 02:06:43 | Step 7826335 / 59600000 | TPS 1006.87 | ETA 14:17:00
Time 02:06:53 | Step 7836623 / 59600000 | TPS 1028.8 | ETA 13:58:34
Time 02:07:03 | Step 7847619 / 59600000 | TPS 1099.56 | ETA 13:04:26
Time 02:07:13 | Step 7860240 / 59600000 | TPS 1262.06 | ETA 11:23:16
Time 02:07:23 | Step 7872180 / 59600000 | TPS 1193.9 | ETA 12:02:06
Time 02:07:33 | Step 7882489 / 59600000 | TPS 1030.82 | ETA 13:56:11
Time 02:07:43 | Step 7892256 / 59600000 | TPS 976.613 | ETA 14:42:26
Time 02:07:53 | Step 7903113 / 59600000 | TPS 1085.68 | ETA 13:13:36
Time 02:08:03 | Step 7915204 / 59600000 | TPS 1209.03 | ETA 11:52:29
Time 02:08:13 | Step 7926709 / 59600000 | TPS 1150.42 | ETA 12:28:37
Time 02:08:23 | Step 7935536 / 59600000 | TPS 882.693 | ETA 16:15:30
Time 02:08:33 | Step 7945087 / 59600000 | TPS 955.096 | ETA 15:01:23
Time 02:08:43 | Step 7954764 / 59600000 | TPS 967.65 | ETA 14:49:31
Time 02:08:53 | Step 7966856 / 59600000 | TPS 1209.16 | ETA 11:51:41
Time 02:09:03 | Step 7976354 / 59600000 | TPS 949.727 | ETA 15:05:56
Time 02:09:13 | Step 7984611 / 59600000 | TPS 825.62 | ETA 17:21:57
Time 02:09:23 | Step 7993453 / 59600000 | TPS 884.108 | ETA 16:12:51
Time 02:09:33 | Step 8002096 / 59600000 | TPS 864.246 | ETA 16:35:02
Time 02:09:43 | Step 8011290 / 59600000 | TPS 919.351 | ETA 15:35:14
Time 02:09:53 | Step 8020118 / 59600000 | TPS 882.709 | ETA 16:13:53
Time 02:10:03 | Step 8028933 / 59600000 | TPS 881.463 | ETA 16:15:06
Time 02:10:13 | Step 8037736 / 59600000 | TPS 880.224 | ETA 16:16:18
Time 02:10:23 | Step 8046487 / 59600000 | TPS 875.075 | ETA 16:21:53
Time 02:10:33 | Step 8055554 / 59600000 | TPS 906.632 | ETA 15:47:32
Time 02:10:43 | Step 8062937 / 59600000 | TPS 738.109 | ETA 19:23:43
Time 02:10:53 | Step 8069204 / 59600000 | TPS 626.616 | ETA 22:50:36
Time 02:11:03 | Step 8076186 / 59600000 | TPS 698.134 | ETA 20:30:02
Time 02:11:13 | Step 8084632 / 59600000 | TPS 844.544 | ETA 16:56:37
Time 02:11:23 | Step 8093433 / 59600000 | TPS 880.097 | ETA 16:15:23
Time 02:11:33 | Step 8104742 / 59600000 | TPS 1130.84 | ETA 12:38:57
Time 02:11:43 | Step 8115338 / 59600000 | TPS 1059.54 | ETA 13:29:51
Time 02:11:53 | Step 8125004 / 59600000 | TPS 966.565 | ETA 14:47:35
Time 02:12:03 | Step 8134954 / 59600000 | TPS 994.983 | ETA 14:22:04
Time 02:12:13 | Step 8143845 / 59600000 | TPS 889.027 | ETA 16:04:39
Time 02:12:23 | Step 8153193 / 59600000 | TPS 934.785 | ETA 15:17:15
Time 02:12:33 | Step 8163689 / 59600000 | TPS 1049.52 | ETA 13:36:49
Time 02:12:43 | Step 8173764 / 59600000 | TPS 1007.45 | ETA 14:10:45
Time 02:12:53 | Step 8182846 / 59600000 | TPS 908.195 | ETA 15:43:34
Time 02:13:03 | Step 8191640 / 59600000 | TPS 879.354 | ETA 16:14:21
Time 02:13:13 | Step 8201867 / 59600000 | TPS 1022.6 | ETA 13:57:42
Time 02:13:23 | Step 8209263 / 59600000 | TPS 739.57 | ETA 19:18:07
Time 02:13:33 | Step 8215563 / 59600000 | TPS 629.912 | ETA 22:39:33
Time 02:13:43 | Step 8223349 / 59600000 | TPS 778.564 | ETA 18:19:49
Time 02:13:53 | Step 8232437 / 59600000 | TPS 908.763 | ETA 15:42:04
Time 02:14:03 | Step 8242970 / 59600000 | TPS 1053.21 | ETA 13:32:42
Time 02:14:13 | Step 8254034 / 59600000 | TPS 1106.37 | ETA 12:53:29
Time 02:14:23 | Step 8265096 / 59600000 | TPS 1106.17 | ETA 12:53:27
Time 02:14:33 | Step 8276350 / 59600000 | TPS 1125.32 | ETA 12:40:08
Time 02:14:43 | Step 8286463 / 59600000 | TPS 1011.2 | ETA 14:05:45
Time 02:14:53 | Step 8296627 / 59600000 | TPS 1016.33 | ETA 14:01:19
Time 02:15:03 | Step 8308081 / 59600000 | TPS 1145.39 | ETA 12:26:21
Time 02:15:13 | Step 8321119 / 59600000 | TPS 1303.79 | ETA 10:55:30
Time 02:15:23 | Step 8332110 / 59600000 | TPS 1099.08 | ETA 12:57:26
Time 02:15:33 | Step 8342851 / 59600000 | TPS 1074.04 | ETA 13:15:23
Time 02:15:43 | Step 8353792 / 59600000 | TPS 1094.07 | ETA 13:00:39
Time 02:15:53 | Step 8364361 / 59600000 | TPS 1056.89 | ETA 13:27:57
Time 02:16:03 | Step 8374985 / 59600000 | TPS 1062.32 | ETA 13:23:39
Time 02:16:13 | Step 8385527 / 59600000 | TPS 1054.14 | ETA 13:29:44
Time 02:16:23 | Step 8397121 / 59600000 | TPS 1159.34 | ETA 12:16:05
Time 02:16:33 | Step 8408709 / 59600000 | TPS 1158.72 | ETA 12:16:19
Time 02:16:43 | Step 8420700 / 59600000 | TPS 1199.01 | ETA 11:51:24
Time 02:16:53 | Step 8432977 / 59600000 | TPS 1227.63 | ETA 11:34:39
Time 02:17:03 | Step 8443981 / 59600000 | TPS 1100.36 | ETA 12:54:50
Time 02:17:13 | Step 8453367 / 59600000 | TPS 938.504 | ETA 15:08:18
Time 02:17:23 | Step 8463453 / 59600000 | TPS 1008.6 | ETA 14:05:00
Time 02:17:33 | Step 8474192 / 59600000 | TPS 1073.81 | ETA 13:13:31
Time 02:17:43 | Step 8483569 / 59600000 | TPS 937.666 | ETA 15:08:34
Time 02:17:53 | Step 8493240 / 59600000 | TPS 967.036 | ETA 14:40:48
Time 02:18:03 | Step 8502440 / 59600000 | TPS 919.798 | ETA 15:25:53
Time 02:18:13 | Step 8510743 / 59600000 | TPS 830.264 | ETA 17:05:33
Time 02:18:23 | Step 8517767 / 59600000 | TPS 702.343 | ETA 20:12:11
Time 02:18:33 | Step 8525068 / 59600000 | TPS 730.033 | ETA 19:26:02
Time 02:18:43 | Step 8533011 / 59600000 | TPS 794.299 | ETA 17:51:31
Time 02:18:53 | Step 8540651 / 59600000 | TPS 763.961 | ETA 18:33:55
Time 02:19:03 | Step 8548244 / 59600000 | TPS 759.216 | ETA 18:40:42
Time 02:19:13 | Step 8555569 / 59600000 | TPS 732.468 | ETA 19:21:28
Time 02:19:23 | Step 8563910 / 59600000 | TPS 834.059 | ETA 16:59:50
Time 02:19:33 | Step 8573068 / 59600000 | TPS 915.794 | ETA 15:28:38
Time 02:19:43 | Step 8582641 / 59600000 | TPS 957.197 | ETA 14:48:18
Time 02:19:53 | Step 8592963 / 59600000 | TPS 1032.18 | ETA 13:43:36
Time 02:20:03 | Step 8603614 / 59600000 | TPS 1065.02 | ETA 13:18:03
Time 02:20:13 | Step 8613975 / 59600000 | TPS 1036.07 | ETA 13:40:10
Time 02:20:23 | Step 8623146 / 59600000 | TPS 917.023 | ETA 15:26:29
Time 02:20:33 | Step 8634366 / 59600000 | TPS 1122 | ETA 12:37:03
Time 02:20:43 | Step 8643579 / 59600000 | TPS 921.21 | ETA 15:21:54
Time 02:20:53 | Step 8652769 / 59600000 | TPS 918.987 | ETA 15:23:58
Time 02:21:03 | Step 8662315 / 59600000 | TPS 954.548 | ETA 14:49:23
Time 02:21:13 | Step 8672217 / 59600000 | TPS 990.123 | ETA 14:17:15
Time 02:21:23 | Step 8682824 / 59600000 | TPS 1060.63 | ETA 13:20:06
Time 02:21:33 | Step 8694350 / 59600000 | TPS 1152.54 | ETA 12:16:08
Time 02:21:43 | Step 8706374 / 59600000 | TPS 1202.31 | ETA 11:45:29
Time 02:21:53 | Step 8718223 / 59600000 | TPS 1184.84 | ETA 11:55:44
Time 02:22:03 | Step 8731526 / 59600000 | TPS 1330.28 | ETA 10:37:18
Time 02:22:13 | Step 8745904 / 59600000 | TPS 1437.77 | ETA 09:49:30
Time 02:22:23 | Step 8758679 / 59600000 | TPS 1277.42 | ETA 11:03:19
Time 02:22:33 | Step 8770140 / 59600000 | TPS 1146.01 | ETA 12:19:13
Time 02:22:43 | Step 8780833 / 59600000 | TPS 1069.23 | ETA 13:12:08
Time 02:22:53 | Step 8791564 / 59600000 | TPS 1073.07 | ETA 13:09:08
Time 02:23:03 | Step 8801518 / 59600000 | TPS 995.398 | ETA 14:10:33
Time 02:23:13 | Step 8809694 / 59600000 | TPS 817.588 | ETA 17:15:22
Time 02:23:23 | Step 8818089 / 59600000 | TPS 839.428 | ETA 16:48:15
Time 02:23:33 | Step 8827678 / 59600000 | TPS 958.852 | ETA 14:42:31
Time 02:23:43 | Step 8836723 / 59600000 | TPS 904.472 | ETA 15:35:24
Time 02:23:53 | Step 8847152 / 59600000 | TPS 1042.9 | ETA 13:31:05
Time 02:24:03 | Step 8858162 / 59600000 | TPS 1100.98 | ETA 12:48:07
Time 02:24:13 | Step 8869004 / 59600000 | TPS 1084.16 | ETA 12:59:53
Time 02:24:23 | Step 8879368 / 59600000 | TPS 1036.34 | ETA 13:35:42
Time 02:24:33 | Step 8891347 / 59600000 | TPS 1197.89 | ETA 11:45:31
Time 02:24:43 | Step 8903626 / 59600000 | TPS 1227.88 | ETA 11:28:07
Time 02:24:53 | Step 8914979 / 59600000 | TPS 1135.19 | ETA 12:24:08
Time 02:25:03 | Step 8924781 / 59600000 | TPS 980.19 | ETA 14:21:39
Time 02:25:13 | Step 8934569 / 59600000 | TPS 978.736 | ETA 14:22:46
Time 02:25:23 | Step 8943915 / 59600000 | TPS 934.513 | ETA 15:03:25
Time 02:25:33 | Step 8953348 / 59600000 | TPS 943.25 | ETA 14:54:53
Time 02:25:43 | Step 8963136 / 59600000 | TPS 978.733 | ETA 14:22:17
Time 02:25:53 | Step 8971604 / 59600000 | TPS 846.774 | ETA 16:36:29
Time 02:26:03 | Step 8981589 / 59600000 | TPS 998.446 | ETA 14:04:57
Time 02:26:13 | Step 8991787 / 59600000 | TPS 1019.71 | ETA 13:47:09
Time 02:26:23 | Step 9000701 / 59600000 | TPS 891.382 | ETA 15:46:04
Time 02:26:33 | Step 9009604 / 59600000 | TPS 890.289 | ETA 15:47:04
Time 02:26:43 | Step 9017347 / 59600000 | TPS 774.279 | ETA 18:08:48
Time 02:26:53 | Step 9024863 / 59600000 | TPS 751.595 | ETA 18:41:30
Time 02:27:03 | Step 9033789 / 59600000 | TPS 892.571 | ETA 15:44:12
Time 02:27:13 | Step 9043130 / 59600000 | TPS 934.042 | ETA 15:02:06
Time 02:27:23 | Step 9052620 / 59600000 | TPS 948.915 | ETA 14:47:48
Time 02:27:33 | Step 9061979 / 59600000 | TPS 935.89 | ETA 14:59:59
Time 02:27:43 | Step 9071047 / 59600000 | TPS 906.76 | ETA 15:28:44
Time 02:27:53 | Step 9081195 / 59600000 | TPS 1014.72 | ETA 13:49:45
Time 02:28:03 | Step 9091205 / 59600000 | TPS 1000.96 | ETA 14:01:00
Time 02:28:13 | Step 9100247 / 59600000 | TPS 904.127 | ETA 15:30:54
Time 02:28:23 | Step 9108536 / 59600000 | TPS 828.857 | ETA 16:55:16
Time 02:28:33 | Step 9116498 / 59600000 | TPS 796.194 | ETA 17:36:46
Time 02:28:43 | Step 9123300 / 59600000 | TPS 680.152 | ETA 20:36:53
Time 02:28:53 | Step 9129963 / 59600000 | TPS 666.248 | ETA 21:02:32
Time 02:29:03 | Step 9138332 / 59600000 | TPS 836.825 | ETA 16:45:01
Time 02:29:13 | Step 9147525 / 59600000 | TPS 919.216 | ETA 15:14:46
Time 02:29:23 | Step 9156801 / 59600000 | TPS 927.398 | ETA 15:06:32
Time 02:29:33 | Step 9164507 / 59600000 | TPS 770.534 | ETA 18:10:55
Time 02:29:43 | Step 9171492 / 59600000 | TPS 698.457 | ETA 20:03:19
Time 02:29:53 | Step 9179541 / 59600000 | TPS 804.846 | ETA 17:24:06
Time 02:30:03 | Step 9187434 / 59600000 | TPS 789.232 | ETA 17:44:35
Time 02:30:13 | Step 9194784 / 59600000 | TPS 734.907 | ETA 19:03:07
Time 02:30:23 | Step 9201067 / 59600000 | TPS 628.269 | ETA 22:16:58
Time 02:30:33 | Step 9208052 / 59600000 | TPS 698.415 | ETA 20:02:31
Time 02:30:43 | Step 9213822 / 59600000 | TPS 576.979 | ETA 24:15:27
Time 02:30:53 | Step 9219918 / 59600000 | TPS 609.585 | ETA 22:57:26
Time 02:31:03 | Step 9227804 / 59600000 | TPS 788.552 | ETA 17:44:39
Time 02:31:13 | Step 9235340 / 59600000 | TPS 753.537 | ETA 18:33:57
Time 02:31:23 | Step 9243071 / 59600000 | TPS 773.086 | ETA 18:05:37
Time 02:31:33 | Step 9251341 / 59600000 | TPS 826.948 | ETA 16:54:44
Time 02:31:43 | Step 9260032 / 59600000 | TPS 869.024 | ETA 16:05:27
Time 02:31:53 | Step 9267703 / 59600000 | TPS 767.076 | ETA 18:13:35
Time 02:32:03 | Step 9275696 / 59600000 | TPS 799.296 | ETA 17:29:20
Time 02:32:13 | Step 9283765 / 59600000 | TPS 806.83 | ETA 17:19:22
Time 02:32:23 | Step 9291731 / 59600000 | TPS 796.546 | ETA 17:32:37
Time 02:32:33 | Step 9299096 / 59600000 | TPS 736.436 | ETA 18:58:23
Time 02:32:43 | Step 9306759 / 59600000 | TPS 766.293 | ETA 18:13:51
Time 02:32:53 | Step 9314304 / 59600000 | TPS 754.445 | ETA 18:30:52
Time 02:33:03 | Step 9321126 / 59600000 | TPS 682.181 | ETA 20:28:23
Time 02:33:13 | Step 9327642 / 59600000 | TPS 651.548 | ETA 21:25:58
Time 02:33:23 | Step 9333191 / 59600000 | TPS 554.801 | ETA 25:10:03
Time 02:33:33 | Step 9338952 / 59600000 | TPS 576.058 | ETA 24:14:09
Time 02:33:43 | Step 9344398 / 59600000 | TPS 544.588 | ETA 25:38:01
Time 02:33:53 | Step 9350161 / 59600000 | TPS 576.21 | ETA 24:13:27
Time 02:34:03 | Step 9356291 / 59600000 | TPS 612.921 | ETA 22:46:14
Time 02:34:13 | Step 9363444 / 59600000 | TPS 715.231 | ETA 19:30:38
Time 02:34:23 | Step 9370184 / 59600000 | TPS 673.913 | ETA 20:42:14
Time 02:34:33 | Step 9377123 / 59600000 | TPS 693.837 | ETA 20:06:24
Time 02:34:43 | Step 9384106 / 59600000 | TPS 698.277 | ETA 19:58:33
Time 02:34:53 | Step 9390943 / 59600000 | TPS 683.689 | ETA 20:23:58
Time 02:35:03 | Step 9398172 / 59600000 | TPS 722.854 | ETA 19:17:29
Time 02:35:13 | Step 9405651 / 59600000 | TPS 747.884 | ETA 18:38:35
Time 02:35:23 | Step 9412553 / 59600000 | TPS 690.107 | ETA 20:12:04
Time 02:35:33 | Step 9419110 / 59600000 | TPS 655.614 | ETA 21:15:40
Time 02:35:43 | Step 9425546 / 59600000 | TPS 643.573 | ETA 21:39:22
Time 02:35:53 | Step 9432245 / 59600000 | TPS 669.833 | ETA 20:48:15
Time 02:36:03 | Step 9440611 / 59600000 | TPS 836.531 | ETA 16:39:21
Time 02:36:13 | Step 9449728 / 59600000 | TPS 911.614 | ETA 15:16:52
Time 02:36:23 | Step 9458840 / 59600000 | TPS 911.154 | ETA 15:17:10
Time 02:36:33 | Step 9467652 / 59600000 | TPS 881.109 | ETA 15:48:16
Time 02:36:43 | Step 9475422 / 59600000 | TPS 776.927 | ETA 17:55:16
Time 02:36:53 | Step 9482937 / 59600000 | TPS 751.447 | ETA 18:31:34
Time 02:37:03 | Step 9490413 / 59600000 | TPS 747.516 | ETA 18:37:14
Time 02:37:13 | Step 9498269 / 59600000 | TPS 785.521 | ETA 17:43:01
Time 02:37:23 | Step 9507070 / 59600000 | TPS 880.06 | ETA 15:48:39
Time 02:37:33 | Step 9517105 / 59600000 | TPS 1003.49 | ETA 13:51:48
Time 02:37:43 | Step 9528701 / 59600000 | TPS 1159.54 | ETA 11:59:41
Time 02:37:53 | Step 9540206 / 59600000 | TPS 1150.42 | ETA 12:05:14
Time 02:38:03 | Step 9551717 / 59600000 | TPS 1151.08 | ETA 12:04:39
Time 02:38:13 | Step 9561389 / 59600000 | TPS 967.18 | ETA 14:22:16
Time 02:38:23 | Step 9571080 / 59600000 | TPS 969.085 | ETA 14:20:24
Time 02:38:33 | Step 9581053 / 59600000 | TPS 997.268 | ETA 13:55:55
Time 02:38:43 | Step 9590831 / 59600000 | TPS 977.782 | ETA 14:12:25
Time 02:38:53 | Step 9598501 / 59600000 | TPS 766.92 | ETA 18:06:37
Time 02:39:03 | Step 9607202 / 59600000 | TPS 870.012 | ETA 15:57:42
Time 02:39:13 | Step 9616151 / 59600000 | TPS 894.832 | ETA 15:30:58
Time 02:39:23 | Step 9624798 / 59600000 | TPS 864.684 | ETA 16:03:15
Time 02:39:33 | Step 9632657 / 59600000 | TPS 785.867 | ETA 17:39:42
Time 02:39:43 | Step 9640820 / 59600000 | TPS 816.235 | ETA 17:00:06
Time 02:39:53 | Step 9649492 / 59600000 | TPS 867.163 | ETA 16:00:02
Time 02:40:03 | Step 9657670 / 59600000 | TPS 817.753 | ETA 16:57:52
Time 02:40:13 | Step 9667342 / 59600000 | TPS 967.108 | ETA 14:20:30
Time 02:40:23 | Step 9678246 / 59600000 | TPS 1090.35 | ETA 12:43:05
Time 02:40:33 | Step 9686693 / 59600000 | TPS 844.615 | ETA 16:24:55
Time 02:40:43 | Step 9694592 / 59600000 | TPS 789.891 | ETA 17:33:00
Time 02:40:53 | Step 9702171 / 59600000 | TPS 757.836 | ETA 18:17:22
Time 02:41:03 | Step 9709555 / 59600000 | TPS 738.363 | ETA 18:46:08
Time 02:41:13 | Step 9719507 / 59600000 | TPS 995.128 | ETA 13:55:24
Time 02:41:23 | Step 9729801 / 59600000 | TPS 1029.21 | ETA 13:27:34
Time 02:41:33 | Step 9739922 / 59600000 | TPS 1012.09 | ETA 13:41:04
Time 02:41:43 | Step 9749449 / 59600000 | TPS 952.678 | ETA 14:32:06
Time 02:41:53 | Step 9759533 / 59600000 | TPS 1008.34 | ETA 13:43:47
Time 02:42:03 | Step 9770462 / 59600000 | TPS 1092.82 | ETA 12:39:57
Time 02:42:13 | Step 9780706 / 59600000 | TPS 1024.39 | ETA 13:30:32
Time 02:42:23 | Step 9791137 / 59600000 | TPS 1043 | ETA 13:15:55
Time 02:42:33 | Step 9801551 / 59600000 | TPS 1041.38 | ETA 13:16:59
Time 02:42:43 | Step 9812603 / 59600000 | TPS 1105.12 | ETA 12:30:51
Time 02:42:53 | Step 9824162 / 59600000 | TPS 1155.81 | ETA 11:57:45
Time 02:43:03 | Step 9835282 / 59600000 | TPS 1111.95 | ETA 12:25:54
Time 02:43:13 | Step 9845467 / 59600000 | TPS 1018.36 | ETA 13:34:17
Time 02:43:23 | Step 9855364 / 59600000 | TPS 989.691 | ETA 13:57:42
Time 02:43:33 | Step 9864693 / 59600000 | TPS 932.825 | ETA 14:48:36
Time 02:43:43 | Step 9873433 / 59600000 | TPS 873.81 | ETA 15:48:27
Time 02:43:53 | Step 9883647 / 59600000 | TPS 1021.32 | ETA 13:31:18
Time 02:44:03 | Step 9895228 / 59600000 | TPS 1158.02 | ETA 11:55:22
Time 02:44:13 | Step 9907337 / 59600000 | TPS 1210.84 | ETA 11:23:59
Time 02:44:23 | Step 9919173 / 59600000 | TPS 1183.56 | ETA 11:39:35
Time 02:44:33 | Step 9929239 / 59600000 | TPS 1006.59 | ETA 13:42:25
Time 02:44:43 | Step 9939077 / 59600000 | TPS 983.75 | ETA 14:01:21
Time 02:44:53 | Step 9951668 / 59600000 | TPS 1259.07 | ETA 10:57:12
Time 02:45:03 | Step 9961642 / 59600000 | TPS 997.371 | ETA 13:49:29
Time 02:45:13 | Step 9971704 / 59600000 | TPS 1006.14 | ETA 13:42:05
Time 02:45:23 | Step 9978982 / 59600000 | TPS 727.799 | ETA 18:56:19
Time 02:45:33 | Step 9985421 / 59600000 | TPS 643.839 | ETA 21:24:20
Time 02:45:43 | Step 9992209 / 59600000 | TPS 678.786 | ETA 20:18:03
Time 02:45:53 | Step 9998525 / 59600000 | TPS 631.596 | ETA 21:48:53
Time 02:46:03 | Step 10005114 / 59600000 | TPS 658.888 | ETA 20:54:30
Time 02:46:13 | Step 10013884 / 59600000 | TPS 876.99 | ETA 15:42:21
Time 02:46:23 | Step 10024734 / 59600000 | TPS 1084.92 | ETA 12:41:35
Time 02:46:33 | Step 10034529 / 59600000 | TPS 979.362 | ETA 14:03:29
Time 02:46:43 | Step 10044841 / 59600000 | TPS 1031.17 | ETA 13:20:57
Time 02:46:53 | Step 10055955 / 59600000 | TPS 1111.38 | ETA 12:22:58
Time 02:47:03 | Step 10066502 / 59600000 | TPS 1054.64 | ETA 13:02:47
Time 02:47:13 | Step 10077201 / 59600000 | TPS 1069.8 | ETA 12:51:31
Time 02:47:23 | Step 10088273 / 59600000 | TPS 1107.16 | ETA 12:25:19
Time 02:47:33 | Step 10097132 / 59600000 | TPS 885.822 | ETA 15:31:23
Time 02:47:43 | Step 10106250 / 59600000 | TPS 911.713 | ETA 15:04:46
Time 02:47:53 | Step 10114821 / 59600000 | TPS 857.053 | ETA 16:02:18
Time 02:48:03 | Step 10122908 / 59600000 | TPS 808.672 | ETA 16:59:43
Time 02:48:13 | Step 10130595 / 59600000 | TPS 768.648 | ETA 17:52:39
Time 02:48:23 | Step 10138396 / 59600000 | TPS 780.01 | ETA 17:36:51
Time 02:48:33 | Step 10146054 / 59600000 | TPS 765.782 | ETA 17:56:19
Time 02:48:43 | Step 10153748 / 59600000 | TPS 769.326 | ETA 17:51:12
Time 02:48:53 | Step 10162907 / 59600000 | TPS 915.826 | ETA 14:59:40
Time 02:49:03 | Step 10171358 / 59600000 | TPS 845.038 | ETA 16:14:52
Time 02:49:13 | Step 10180416 / 59600000 | TPS 905.763 | ETA 15:09:21
Time 02:49:23 | Step 10190491 / 59600000 | TPS 1007.41 | ETA 13:37:25
Time 02:49:33 | Step 10199687 / 59600000 | TPS 919.512 | ETA 14:55:24
Time 02:49:43 | Step 10207295 / 59600000 | TPS 760.781 | ETA 18:02:03
Time 02:49:53 | Step 10214163 / 59600000 | TPS 686.733 | ETA 19:58:34
Time 02:50:03 | Step 10222047 / 59600000 | TPS 788.358 | ETA 17:23:53
Time 02:50:13 | Step 10230193 / 59600000 | TPS 814.537 | ETA 16:50:10
Time 02:50:23 | Step 10237699 / 59600000 | TPS 750.54 | ETA 18:16:09
Time 02:50:33 | Step 10245427 / 59600000 | TPS 772.697 | ETA 17:44:33
Time 02:50:43 | Step 10252869 / 59600000 | TPS 744.158 | ETA 18:25:12
Time 02:50:53 | Step 10260301 / 59600000 | TPS 743.166 | ETA 18:26:31
Time 02:51:03 | Step 10266746 / 59600000 | TPS 644.424 | ETA 21:15:54
Time 02:51:13 | Step 10273954 / 59600000 | TPS 720.746 | ETA 19:00:37
Time 02:51:23 | Step 10281681 / 59600000 | TPS 772.692 | ETA 17:43:46
Time 02:51:33 | Step 10290067 / 59600000 | TPS 838.514 | ETA 16:20:06
Time 02:51:43 | Step 10298535 / 59600000 | TPS 846.749 | ETA 16:10:24
Time 02:51:53 | Step 10305853 / 59600000 | TPS 731.722 | ETA 18:42:47
Time 02:52:03 | Step 10312817 / 59600000 | TPS 696.328 | ETA 19:39:41
Time 02:52:13 | Step 10319933 / 59600000 | TPS 711.588 | ETA 19:14:13
Time 02:52:23 | Step 10327790 / 59600000 | TPS 785.599 | ETA 17:25:19
Time 02:52:33 | Step 10335236 / 59600000 | TPS 744.571 | ETA 18:22:45
Time 02:52:43 | Step 10342899 / 59600000 | TPS 766.285 | ETA 17:51:20
Time 02:52:53 | Step 10350534 / 59600000 | TPS 763.433 | ETA 17:55:10
Time 02:53:03 | Step 10357825 / 59600000 | TPS 729.085 | ETA 18:45:39
Time 02:53:13 | Step 10366325 / 59600000 | TPS 849.917 | ETA 16:05:27
Time 02:53:23 | Step 10375488 / 59600000 | TPS 916.29 | ETA 14:55:21
Time 02:53:33 | Step 10384535 / 59600000 | TPS 904.635 | ETA 15:06:43
Time 02:53:43 | Step 10394923 / 59600000 | TPS 1038.71 | ETA 13:09:31
Time 02:53:53 | Step 10405248 / 59600000 | TPS 1032.45 | ETA 13:14:08
Time 02:54:03 | Step 10414680 / 59600000 | TPS 943.175 | ETA 14:29:08
Time 02:54:13 | Step 10423015 / 59600000 | TPS 833.471 | ETA 16:23:22
Time 02:54:23 | Step 10432456 / 59600000 | TPS 944.065 | ETA 14:28:00
Time 02:54:33 | Step 10442443 / 59600000 | TPS 998.617 | ETA 13:40:25
Time 02:54:43 | Step 10452901 / 59600000 | TPS 1045.65 | ETA 13:03:21
Time 02:54:53 | Step 10461149 / 59600000 | TPS 824.781 | ETA 16:32:58
Time 02:55:03 | Step 10469701 / 59600000 | TPS 855.005 | ETA 15:57:41
Time 02:55:13 | Step 10478463 / 59600000 | TPS 876.114 | ETA 15:34:27
Time 02:55:23 | Step 10486168 / 59600000 | TPS 770.432 | ETA 17:42:28
Time 02:55:33 | Step 10495770 / 59600000 | TPS 960.17 | ETA 14:12:21
Time 02:55:43 | Step 10506665 / 59600000 | TPS 1089.46 | ETA 12:31:02
Time 02:55:53 | Step 10517412 / 59600000 | TPS 1074.69 | ETA 12:41:11
Time 02:56:03 | Step 10527647 / 59600000 | TPS 1023.39 | ETA 13:19:10
Time 02:56:13 | Step 10536737 / 59600000 | TPS 909 | ETA 14:59:35
Time 02:56:23 | Step 10547170 / 59600000 | TPS 1043.29 | ETA 13:03:37
Time 02:56:33 | Step 10558027 / 59600000 | TPS 1085.61 | ETA 12:32:54
Time 02:56:43 | Step 10567562 / 59600000 | TPS 953.415 | ETA 14:17:08
Time 02:56:53 | Step 10576772 / 59600000 | TPS 920.914 | ETA 14:47:13
Time 02:57:03 | Step 10588035 / 59600000 | TPS 1126.23 | ETA 12:05:18
Time 02:57:13 | Step 10600120 / 59600000 | TPS 1208.46 | ETA 11:15:47
Time 02:57:23 | Step 10609071 / 59600000 | TPS 895.075 | ETA 15:12:13
Time 02:57:33 | Step 10616688 / 59600000 | TPS 761.602 | ETA 17:51:56
Time 02:57:43 | Step 10624605 / 59600000 | TPS 791.624 | ETA 17:11:07
Time 02:57:53 | Step 10633653 / 59600000 | TPS 904.799 | ETA 15:01:58
Time 02:58:03 | Step 10642264 / 59600000 | TPS 861.031 | ETA 15:47:39
Time 02:58:13 | Step 10651234 / 59600000 | TPS 896.939 | ETA 15:09:33
Time 02:58:23 | Step 10660090 / 59600000 | TPS 885.52 | ETA 15:21:06
Time 02:58:33 | Step 10668573 / 59600000 | TPS 848.245 | ETA 16:01:25
Time 02:58:43 | Step 10677410 / 59600000 | TPS 883.697 | ETA 15:22:41
Time 02:58:53 | Step 10685228 / 59600000 | TPS 781.742 | ETA 17:22:51
Time 02:59:03 | Step 10692692 / 59600000 | TPS 746.344 | ETA 18:12:09
Time 02:59:13 | Step 10699330 / 59600000 | TPS 663.712 | ETA 20:27:57
Time 02:59:23 | Step 10706270 / 59600000 | TPS 693.908 | ETA 19:34:21
Time 02:59:33 | Step 10713201 / 59600000 | TPS 692.952 | ETA 19:35:48
Time 02:59:43 | Step 10720870 / 59600000 | TPS 766.866 | ETA 17:42:18
Time 02:59:53 | Step 10728767 / 59600000 | TPS 789.647 | ETA 17:11:29
Time 03:00:03 | Step 10736222 / 59600000 | TPS 745.474 | ETA 18:12:27
Time 03:00:13 | Step 10742833 / 59600000 | TPS 661.066 | ETA 20:31:46
Time 03:00:23 | Step 10750467 / 59600000 | TPS 763.356 | ETA 17:46:33
Time 03:00:33 | Step 10758137 / 59600000 | TPS 766.986 | ETA 17:41:20
Time 03:00:43 | Step 10767244 / 59600000 | TPS 910.695 | ETA 14:53:41
Time 03:00:53 | Step 10778539 / 59600000 | TPS 1129.46 | ETA 12:00:25
Time 03:01:03 | Step 10789999 / 59600000 | TPS 1145.96 | ETA 11:49:52
Time 03:01:13 | Step 10800937 / 59600000 | TPS 1093.72 | ETA 12:23:37
Time 03:01:23 | Step 10813371 / 59600000 | TPS 1243.39 | ETA 10:53:56
Time 03:01:33 | Step 10825509 / 59600000 | TPS 1213.8 | ETA 11:09:43
Time 03:01:43 | Step 10835350 / 59600000 | TPS 983.997 | ETA 13:45:57
Time 03:01:53 | Step 10843550 / 59600000 | TPS 819.929 | ETA 16:31:04
Time 03:02:03 | Step 10851961 / 59600000 | TPS 841.065 | ETA 16:05:59
Time 03:02:13 | Step 10861764 / 59600000 | TPS 980.289 | ETA 13:48:38
Time 03:02:23 | Step 10872244 / 59600000 | TPS 1047.96 | ETA 12:54:57
Time 03:02:33 | Step 10882855 / 59600000 | TPS 1061.1 | ETA 12:45:12
Time 03:02:43 | Step 10892360 / 59600000 | TPS 950.493 | ETA 14:14:04
Time 03:02:53 | Step 10903413 / 59600000 | TPS 1105.29 | ETA 12:14:17
Time 03:03:03 | Step 10913528 / 59600000 | TPS 1011.42 | ETA 13:22:16
Time 03:03:13 | Step 10924694 / 59600000 | TPS 1116.51 | ETA 12:06:35
Time 03:03:23 | Step 10936186 / 59600000 | TPS 1149.11 | ETA 11:45:49
Time 03:03:33 | Step 10946013 / 59600000 | TPS 982.664 | ETA 13:45:12
Time 03:03:43 | Step 10955425 / 59600000 | TPS 941.16 | ETA 14:21:25
Time 03:03:53 | Step 10965279 / 59600000 | TPS 985.34 | ETA 13:42:38
Time 03:04:03 | Step 10976236 / 59600000 | TPS 1095.7 | ETA 12:19:36
Time 03:04:13 | Step 10987572 / 59600000 | TPS 1133.49 | ETA 11:54:47
Time 03:04:23 | Step 10998018 / 59600000 | TPS 1044.52 | ETA 12:55:30
Time 03:04:33 | Step 11010254 / 59600000 | TPS 1223.54 | ETA 11:01:52
Time 03:04:43 | Step 11022880 / 59600000 | TPS 1262.59 | ETA 10:41:14
Time 03:04:53 | Step 11036308 / 59600000 | TPS 1342.76 | ETA 10:02:47
Time 03:05:03 | Step 11049432 / 59600000 | TPS 1312.35 | ETA 10:16:35
Time 03:05:13 | Step 11061098 / 59600000 | TPS 1166.53 | ETA 11:33:29
Time 03:05:23 | Step 11072088 / 59600000 | TPS 1099 | ETA 12:15:56
Time 03:05:33 | Step 11081268 / 59600000 | TPS 917.956 | ETA 14:40:55
Time 03:05:43 | Step 11089892 / 59600000 | TPS 862.353 | ETA 15:37:33
Time 03:05:53 | Step 11098642 / 59600000 | TPS 874.998 | ETA 15:23:50
Time 03:06:03 | Step 11108396 / 59600000 | TPS 975.4 | ETA 13:48:34
Time 03:06:13 | Step 11118029 / 59600000 | TPS 963.243 | ETA 13:58:52
Time 03:06:23 | Step 11126486 / 59600000 | TPS 845.627 | ETA 15:55:22
Time 03:06:33 | Step 11133296 / 59600000 | TPS 680.991 | ETA 19:46:10
Time 03:06:43 | Step 11141305 / 59600000 | TPS 800.823 | ETA 16:48:31
Time 03:06:53 | Step 11148659 / 59600000 | TPS 735.39 | ETA 18:18:05
Time 03:07:03 | Step 11154888 / 59600000 | TPS 622.829 | ETA 21:36:22
Time 03:07:13 | Step 11160375 / 59600000 | TPS 548.667 | ETA 24:31:26
Time 03:07:23 | Step 11167458 / 59600000 | TPS 708.226 | ETA 18:59:45
Time 03:07:33 | Step 11174402 / 59600000 | TPS 694.362 | ETA 19:22:21
Time 03:07:43 | Step 11180636 / 59600000 | TPS 623.276 | ETA 21:34:45
Time 03:07:53 | Step 11187384 / 59600000 | TPS 674.721 | ETA 19:55:52
Time 03:08:03 | Step 11193801 / 59600000 | TPS 641.696 | ETA 20:57:14
Time 03:08:13 | Step 11200406 / 59600000 | TPS 660.427 | ETA 20:21:25
Time 03:08:23 | Step 11207323 / 59600000 | TPS 691.639 | ETA 19:26:08
Time 03:08:33 | Step 11214247 / 59600000 | TPS 692.381 | ETA 19:24:43
Time 03:08:43 | Step 11220647 / 59600000 | TPS 639.898 | ETA 21:00:04
Time 03:08:53 | Step 11226775 / 59600000 | TPS 612.797 | ETA 21:55:38
Time 03:09:03 | Step 11233048 / 59600000 | TPS 627.271 | ETA 21:25:06
Time 03:09:13 | Step 11240093 / 59600000 | TPS 704.462 | ETA 19:04:07
Time 03:09:23 | Step 11246709 / 59600000 | TPS 661.537 | ETA 20:18:12
Time 03:09:33 | Step 11254053 / 59600000 | TPS 734.38 | ETA 18:17:12
Time 03:09:43 | Step 11262985 / 59600000 | TPS 893.162 | ETA 15:01:58
Time 03:09:53 | Step 11270946 / 59600000 | TPS 796.054 | ETA 16:51:50
Time 03:10:03 | Step 11278564 / 59600000 | TPS 761.695 | ETA 17:37:19
Time 03:10:13 | Step 11285172 / 59600000 | TPS 660.744 | ETA 20:18:41
Time 03:10:23 | Step 11292326 / 59600000 | TPS 715.366 | ETA 18:45:28
[...]
Time 16:31:56 | Step 57286791 / 59600000 | TPS 729.615 | ETA 00:52:50
Time 16:32:06 | Step 57293767 / 59600000 | TPS 697.562 | ETA 00:55:06
Time 16:32:16 | Step 57301578 / 59600000 | TPS 781.014 | ETA 00:49:02
Time 16:32:26 | Step 57309190 / 59600000 | TPS 761.169 | ETA 00:50:09
Time 16:32:36 | Step 57317082 / 59600000 | TPS 789.123 | ETA 00:48:12
Time 16:32:46 | Step 57325185 / 59600000 | TPS 810.219 | ETA 00:46:47
Time 16:32:56 | Step 57332736 / 59600000 | TPS 755.094 | ETA 00:50:02
Time 16:33:06 | Step 57340044 / 59600000 | TPS 730.767 | ETA 00:51:32
Time 16:33:16 | Step 57346940 / 59600000 | TPS 689.598 | ETA 00:54:27
Time 16:33:26 | Step 57353987 / 59600000 | TPS 704.685 | ETA 00:53:07
Time 16:33:36 | Step 57360940 / 59600000 | TPS 695.205 | ETA 00:53:40
Time 16:33:46 | Step 57368245 / 59600000 | TPS 730.434 | ETA 00:50:55
Time 16:33:56 | Step 57376789 / 59600000 | TPS 854.385 | ETA 00:43:22
Time 16:34:06 | Step 57384939 / 59600000 | TPS 814.922 | ETA 00:45:18
Time 16:34:16 | Step 57393689 / 59600000 | TPS 874.921 | ETA 00:42:01
Time 16:34:26 | Step 57401975 / 59600000 | TPS 828.59 | ETA 00:44:12
Time 16:34:36 | Step 57409939 / 59600000 | TPS 796.346 | ETA 00:45:50
Time 16:34:46 | Step 57417940 / 59600000 | TPS 800.061 | ETA 00:45:27
Time 16:34:56 | Step 57426079 / 59600000 | TPS 813.85 | ETA 00:44:31
Time 16:35:06 | Step 57435728 / 59600000 | TPS 964.813 | ETA 00:37:23
Time 16:35:16 | Step 57445072 / 59600000 | TPS 934.355 | ETA 00:38:26
Time 16:35:26 | Step 57453372 / 59600000 | TPS 829.961 | ETA 00:43:06
Time 16:35:36 | Step 57461792 / 59600000 | TPS 841.987 | ETA 00:42:19
Time 16:35:46 | Step 57469503 / 59600000 | TPS 771.06 | ETA 00:46:03
Time 16:35:56 | Step 57476698 / 59600000 | TPS 719.423 | ETA 00:49:11
Time 16:36:06 | Step 57483738 / 59600000 | TPS 703.813 | ETA 00:50:06
Time 16:36:16 | Step 57491867 / 59600000 | TPS 812.81 | ETA 00:43:13
Time 16:36:26 | Step 57499493 / 59600000 | TPS 762.51 | ETA 00:45:54
Time 16:36:36 | Step 57507950 / 59600000 | TPS 845.666 | ETA 00:41:13
Time 16:36:46 | Step 57517330 / 59600000 | TPS 937.973 | ETA 00:37:00
Time 16:36:56 | Step 57525551 / 59600000 | TPS 822.079 | ETA 00:42:03
Time 16:37:06 | Step 57532974 / 59600000 | TPS 742.278 | ETA 00:46:24
Time 16:37:16 | Step 57541122 / 59600000 | TPS 814.791 | ETA 00:42:06
Time 16:37:26 | Step 57549934 / 59600000 | TPS 881.177 | ETA 00:38:46
Time 16:37:36 | Step 57559708 / 59600000 | TPS 977.375 | ETA 00:34:47
Time 16:37:46 | Step 57568444 / 59600000 | TPS 873.528 | ETA 00:38:45
Time 16:37:56 | Step 57576586 / 59600000 | TPS 814.152 | ETA 00:41:25
Time 16:38:06 | Step 57584496 / 59600000 | TPS 790.974 | ETA 00:42:28
Time 16:38:16 | Step 57593145 / 59600000 | TPS 864.85 | ETA 00:38:40
Time 16:38:26 | Step 57601436 / 59600000 | TPS 829.043 | ETA 00:40:10
Time 16:38:36 | Step 57608937 / 59600000 | TPS 750.012 | ETA 00:44:14
Time 16:38:46 | Step 57618521 / 59600000 | TPS 958.326 | ETA 00:34:27
Time 16:38:56 | Step 57627407 / 59600000 | TPS 888.569 | ETA 00:36:59
Time 16:39:06 | Step 57635553 / 59600000 | TPS 814.525 | ETA 00:40:11
Time 16:39:16 | Step 57643909 / 59600000 | TPS 835.56 | ETA 00:39:01
Time 16:39:26 | Step 57653645 / 59600000 | TPS 973.547 | ETA 00:33:19
Time 16:39:36 | Step 57662466 / 59600000 | TPS 882.019 | ETA 00:36:36
Time 16:39:46 | Step 57672085 / 59600000 | TPS 961.841 | ETA 00:33:24
Time 16:39:56 | Step 57682360 / 59600000 | TPS 1027.49 | ETA 00:31:06
Time 16:40:06 | Step 57691393 / 59600000 | TPS 903.243 | ETA 00:35:13
Time 16:40:16 | Step 57701967 / 59600000 | TPS 1057.33 | ETA 00:29:55
Time 16:40:26 | Step 57711059 / 59600000 | TPS 909.119 | ETA 00:34:37
Time 16:40:36 | Step 57720153 / 59600000 | TPS 909.354 | ETA 00:34:27
Time 16:40:46 | Step 57727774 / 59600000 | TPS 762.046 | ETA 00:40:56
Time 16:40:56 | Step 57735489 / 59600000 | TPS 771.427 | ETA 00:40:16
Time 16:41:06 | Step 57743296 / 59600000 | TPS 780.628 | ETA 00:39:38
Time 16:41:16 | Step 57751492 / 59600000 | TPS 819.559 | ETA 00:37:35
Time 16:41:26 | Step 57760473 / 59600000 | TPS 898.061 | ETA 00:34:08
Time 16:41:36 | Step 57770993 / 59600000 | TPS 1051.99 | ETA 00:28:58
Time 16:41:46 | Step 57781169 / 59600000 | TPS 1017.52 | ETA 00:29:47
Time 16:41:56 | Step 57789337 / 59600000 | TPS 816.721 | ETA 00:36:56
Time 16:42:06 | Step 57797207 / 59600000 | TPS 786.941 | ETA 00:38:10
Time 16:42:16 | Step 57805031 / 59600000 | TPS 782.393 | ETA 00:38:14
Time 16:42:26 | Step 57814197 / 59600000 | TPS 916.593 | ETA 00:32:28
Time 16:42:36 | Step 57823886 / 59600000 | TPS 968.826 | ETA 00:30:33
Time 16:42:46 | Step 57832458 / 59600000 | TPS 857.151 | ETA 00:34:22
Time 16:42:56 | Step 57841266 / 59600000 | TPS 880.797 | ETA 00:33:16
Time 16:43:06 | Step 57850163 / 59600000 | TPS 889.655 | ETA 00:32:46
Time 16:43:16 | Step 57858794 / 59600000 | TPS 863.082 | ETA 00:33:37
Time 16:43:26 | Step 57866854 / 59600000 | TPS 805.997 | ETA 00:35:50
Time 16:43:36 | Step 57873916 / 59600000 | TPS 706.175 | ETA 00:40:44
Time 16:43:46 | Step 57880955 / 59600000 | TPS 703.865 | ETA 00:40:42
Time 16:43:56 | Step 57889079 / 59600000 | TPS 812.394 | ETA 00:35:06
Time 16:44:06 | Step 57896888 / 59600000 | TPS 780.877 | ETA 00:36:21
Time 16:44:16 | Step 57905337 / 59600000 | TPS 844.816 | ETA 00:33:25
Time 16:44:26 | Step 57914155 / 59600000 | TPS 881.748 | ETA 00:31:51
Time 16:44:36 | Step 57923199 / 59600000 | TPS 904.342 | ETA 00:30:54
Time 16:44:46 | Step 57930772 / 59600000 | TPS 757.262 | ETA 00:36:44
Time 16:44:56 | Step 57937368 / 59600000 | TPS 659.551 | ETA 00:42:00
Time 16:45:06 | Step 57944964 / 59600000 | TPS 759.532 | ETA 00:36:19
Time 16:45:16 | Step 57952060 / 59600000 | TPS 709.512 | ETA 00:38:42
Time 16:45:26 | Step 57960209 / 59600000 | TPS 814.894 | ETA 00:33:32
Time 16:45:36 | Step 57968948 / 59600000 | TPS 873.867 | ETA 00:31:06
Time 16:45:46 | Step 57977315 / 59600000 | TPS 836.644 | ETA 00:32:19
Time 16:45:56 | Step 57985489 / 59600000 | TPS 817.32 | ETA 00:32:55
Time 16:46:06 | Step 57993135 / 59600000 | TPS 764.583 | ETA 00:35:01
Time 16:46:16 | Step 58002468 / 59600000 | TPS 933.223 | ETA 00:28:31
Time 16:46:26 | Step 58011695 / 59600000 | TPS 922.682 | ETA 00:28:41
Time 16:46:36 | Step 58021675 / 59600000 | TPS 997.999 | ETA 00:26:21
Time 16:46:46 | Step 58031313 / 59600000 | TPS 963.799 | ETA 00:27:07
Time 16:46:56 | Step 58039589 / 59600000 | TPS 827.596 | ETA 00:31:25
Time 16:47:06 | Step 58046928 / 59600000 | TPS 733.803 | ETA 00:35:16
Time 16:47:16 | Step 58054627 / 59600000 | TPS 769.87 | ETA 00:33:27
Time 16:47:26 | Step 58063228 / 59600000 | TPS 860.096 | ETA 00:29:46
Time 16:47:36 | Step 58071555 / 59600000 | TPS 832.687 | ETA 00:30:35
Time 16:47:46 | Step 58079202 / 59600000 | TPS 764.677 | ETA 00:33:08
Time 16:47:56 | Step 58086750 / 59600000 | TPS 754.721 | ETA 00:33:25
Time 16:48:06 | Step 58095150 / 59600000 | TPS 839.936 | ETA 00:29:51
Time 16:48:16 | Step 58104900 / 59600000 | TPS 974.989 | ETA 00:25:33
Time 16:48:26 | Step 58114458 / 59600000 | TPS 955.774 | ETA 00:25:54
Time 16:48:36 | Step 58123796 / 59600000 | TPS 933.718 | ETA 00:26:20
Time 16:48:46 | Step 58132691 / 59600000 | TPS 889.46 | ETA 00:27:29
Time 16:48:56 | Step 58140492 / 59600000 | TPS 780.041 | ETA 00:31:11
Time 16:49:06 | Step 58148401 / 59600000 | TPS 790.73 | ETA 00:30:35
Time 16:49:16 | Step 58157334 / 59600000 | TPS 893.294 | ETA 00:26:54
Time 16:49:26 | Step 58167735 / 59600000 | TPS 1040.02 | ETA 00:22:57
Time 16:49:36 | Step 58175623 / 59600000 | TPS 788.772 | ETA 00:30:05
Time 16:49:46 | Step 58181697 / 59600000 | TPS 607.305 | ETA 00:38:55
Time 16:49:56 | Step 58187522 / 59600000 | TPS 582.426 | ETA 00:40:25
Time 16:50:06 | Step 58193596 / 59600000 | TPS 607.375 | ETA 00:38:35
Time 16:50:16 | Step 58200172 / 59600000 | TPS 657.582 | ETA 00:35:28
Time 16:50:26 | Step 58208330 / 59600000 | TPS 815.613 | ETA 00:28:26
Time 16:50:36 | Step 58216967 / 59600000 | TPS 863.668 | ETA 00:26:41
Time 16:50:46 | Step 58225946 / 59600000 | TPS 897.843 | ETA 00:25:30
Time 16:50:56 | Step 58234977 / 59600000 | TPS 903.033 | ETA 00:25:11
Time 16:51:06 | Step 58245170 / 59600000 | TPS 1019.29 | ETA 00:22:09
Time 16:51:16 | Step 58255611 / 59600000 | TPS 1044.02 | ETA 00:21:27
Time 16:51:26 | Step 58265628 / 59600000 | TPS 1001.68 | ETA 00:22:12
Time 16:51:36 | Step 58274327 / 59600000 | TPS 869.866 | ETA 00:25:23
Time 16:51:46 | Step 58283713 / 59600000 | TPS 938.532 | ETA 00:23:22
Time 16:51:56 | Step 58292494 / 59600000 | TPS 878.092 | ETA 00:24:49
Time 16:52:06 | Step 58301170 / 59600000 | TPS 867.525 | ETA 00:24:57
Time 16:52:16 | Step 58308777 / 59600000 | TPS 760.522 | ETA 00:28:17
Time 16:52:26 | Step 58316285 / 59600000 | TPS 750.734 | ETA 00:28:29
Time 16:52:36 | Step 58324032 / 59600000 | TPS 774.666 | ETA 00:27:27
Time 16:52:46 | Step 58331699 / 59600000 | TPS 766.679 | ETA 00:27:34
Time 16:52:56 | Step 58339686 / 59600000 | TPS 798.628 | ETA 00:26:18
Time 16:53:06 | Step 58347125 / 59600000 | TPS 743.822 | ETA 00:28:04
Time 16:53:16 | Step 58355214 / 59600000 | TPS 808.835 | ETA 00:25:38
Time 16:53:26 | Step 58362898 / 59600000 | TPS 768.355 | ETA 00:26:50
Time 16:53:36 | Step 58369972 / 59600000 | TPS 707.37 | ETA 00:28:58
Time 16:53:46 | Step 58377692 / 59600000 | TPS 771.977 | ETA 00:26:23
Time 16:53:56 | Step 58386469 / 59600000 | TPS 877.641 | ETA 00:23:02
Time 16:54:06 | Step 58396922 / 59600000 | TPS 1045.23 | ETA 00:19:11
Time 16:54:16 | Step 58406575 / 59600000 | TPS 965.27 | ETA 00:20:36
Time 16:54:26 | Step 58415697 / 59600000 | TPS 912.14 | ETA 00:21:38
Time 16:54:36 | Step 58425134 / 59600000 | TPS 943.695 | ETA 00:20:44
Time 16:54:46 | Step 58433666 / 59600000 | TPS 853.147 | ETA 00:22:47
Time 16:54:56 | Step 58443134 / 59600000 | TPS 946.707 | ETA 00:20:21
Time 16:55:06 | Step 58453074 / 59600000 | TPS 993.916 | ETA 00:19:13
Time 16:55:16 | Step 58463183 / 59600000 | TPS 1010.71 | ETA 00:18:44
Time 16:55:26 | Step 58474331 / 59600000 | TPS 1114.7 | ETA 00:16:49
Time 16:55:36 | Step 58483247 / 59600000 | TPS 891.549 | ETA 00:20:52
Time 16:55:46 | Step 58490686 / 59600000 | TPS 743.816 | ETA 00:24:51
Time 16:55:56 | Step 58499062 / 59600000 | TPS 837.532 | ETA 00:21:54
Time 16:56:06 | Step 58508636 / 59600000 | TPS 957.359 | ETA 00:18:59
Time 16:56:16 | Step 58516943 / 59600000 | TPS 830.674 | ETA 00:21:43
Time 16:56:26 | Step 58525078 / 59600000 | TPS 813.46 | ETA 00:22:01
Time 16:56:36 | Step 58533396 / 59600000 | TPS 831.721 | ETA 00:21:22
Time 16:56:46 | Step 58542778 / 59600000 | TPS 938.14 | ETA 00:18:46
Time 16:56:56 | Step 58551309 / 59600000 | TPS 853.026 | ETA 00:20:29
Time 16:57:06 | Step 58560196 / 59600000 | TPS 888.614 | ETA 00:19:30
Time 16:57:16 | Step 58567537 / 59600000 | TPS 734.043 | ETA 00:23:26
Time 16:57:26 | Step 58575531 / 59600000 | TPS 799.344 | ETA 00:21:21
Time 16:57:36 | Step 58584224 / 59600000 | TPS 869.275 | ETA 00:19:28
Time 16:57:46 | Step 58592372 / 59600000 | TPS 814.759 | ETA 00:20:36
Time 16:57:56 | Step 58599527 / 59600000 | TPS 715.393 | ETA 00:23:18
Time 16:58:06 | Step 58604917 / 59600000 | TPS 538.948 | ETA 00:30:46
Time 16:58:16 | Step 58610676 / 59600000 | TPS 575.899 | ETA 00:28:37
Time 16:58:26 | Step 58616525 / 59600000 | TPS 584.831 | ETA 00:28:01
Time 16:58:36 | Step 58622206 / 59600000 | TPS 568.053 | ETA 00:28:41
Time 16:58:46 | Step 58628359 / 59600000 | TPS 615.279 | ETA 00:26:19
Time 16:58:56 | Step 58634702 / 59600000 | TPS 634.238 | ETA 00:25:21
Time 16:59:06 | Step 58640576 / 59600000 | TPS 587.387 | ETA 00:27:13
Time 16:59:16 | Step 58647474 / 59600000 | TPS 689.72 | ETA 00:23:01
Time 16:59:26 | Step 58654769 / 59600000 | TPS 729.471 | ETA 00:21:35
Time 16:59:36 | Step 58662587 / 59600000 | TPS 781.795 | ETA 00:19:59
Time 16:59:46 | Step 58670521 / 59600000 | TPS 793.312 | ETA 00:19:31
Time 16:59:56 | Step 58678473 / 59600000 | TPS 795.147 | ETA 00:19:18
Time 17:00:06 | Step 58689097 / 59600000 | TPS 1062.38 | ETA 00:14:17
Time 17:00:16 | Step 58697701 / 59600000 | TPS 860.349 | ETA 00:17:28
Time 17:00:26 | Step 58706633 / 59600000 | TPS 893.158 | ETA 00:16:40
Time 17:00:36 | Step 58716240 / 59600000 | TPS 960.684 | ETA 00:15:19
Time 17:00:46 | Step 58724981 / 59600000 | TPS 874.032 | ETA 00:16:41
Time 17:00:56 | Step 58732892 / 59600000 | TPS 791.031 | ETA 00:18:16
Time 17:01:06 | Step 58740223 / 59600000 | TPS 733.021 | ETA 00:19:32
Time 17:01:16 | Step 58748408 / 59600000 | TPS 818.498 | ETA 00:17:20
Time 17:01:26 | Step 58756969 / 59600000 | TPS 856.015 | ETA 00:16:24
Time 17:01:36 | Step 58766605 / 59600000 | TPS 963.521 | ETA 00:14:24
Time 17:01:46 | Step 58775742 / 59600000 | TPS 913.667 | ETA 00:15:02
Time 17:01:56 | Step 58784752 / 59600000 | TPS 900.916 | ETA 00:15:04
Time 17:02:06 | Step 58794680 / 59600000 | TPS 992.696 | ETA 00:13:31
Time 17:02:16 | Step 58802569 / 59600000 | TPS 788.838 | ETA 00:16:50
Time 17:02:26 | Step 58810430 / 59600000 | TPS 786.026 | ETA 00:16:44
Time 17:02:36 | Step 58818538 / 59600000 | TPS 810.779 | ETA 00:16:03
Time 17:02:46 | Step 58827731 / 59600000 | TPS 919.236 | ETA 00:14:00
Time 17:02:56 | Step 58838359 / 59600000 | TPS 1062.76 | ETA 00:11:56
Time 17:03:06 | Step 58851034 / 59600000 | TPS 1267.41 | ETA 00:09:50
Time 17:03:16 | Step 58862460 / 59600000 | TPS 1142.6 | ETA 00:10:45
Time 17:03:26 | Step 58871818 / 59600000 | TPS 935.799 | ETA 00:12:58
Time 17:03:36 | Step 58880625 / 59600000 | TPS 880.599 | ETA 00:13:36
Time 17:03:46 | Step 58889415 / 59600000 | TPS 878.931 | ETA 00:13:28
Time 17:03:56 | Step 58898280 / 59600000 | TPS 886.431 | ETA 00:13:11
Time 17:04:06 | Step 58907890 / 59600000 | TPS 960.995 | ETA 00:12:00
Time 17:04:16 | Step 58917014 / 59600000 | TPS 912.397 | ETA 00:12:28
Time 17:04:26 | Step 58926465 / 59600000 | TPS 945.02 | ETA 00:11:52
Time 17:04:36 | Step 58939279 / 59600000 | TPS 1281.32 | ETA 00:08:35
Time 17:04:46 | Step 58951806 / 59600000 | TPS 1252.7 | ETA 00:08:37
Time 17:04:56 | Step 58960555 / 59600000 | TPS 874.851 | ETA 00:12:10
Time 17:05:06 | Step 58968730 / 59600000 | TPS 817.451 | ETA 00:12:52
Time 17:05:16 | Step 58976432 / 59600000 | TPS 770.116 | ETA 00:13:29
Time 17:05:26 | Step 58985261 / 59600000 | TPS 882.821 | ETA 00:11:36
Time 17:05:36 | Step 58994194 / 59600000 | TPS 893.232 | ETA 00:11:18
Time 17:05:46 | Step 59004830 / 59600000 | TPS 1063.58 | ETA 00:09:19
Time 17:05:56 | Step 59012910 / 59600000 | TPS 807.993 | ETA 00:12:06
Time 17:06:06 | Step 59020474 / 59600000 | TPS 756.234 | ETA 00:12:46
Time 17:06:16 | Step 59029851 / 59600000 | TPS 937.625 | ETA 00:10:08
Time 17:06:26 | Step 59040936 / 59600000 | TPS 1108.5 | ETA 00:08:24
Time 17:06:36 | Step 59051919 / 59600000 | TPS 1098.24 | ETA 00:08:19
Time 17:06:46 | Step 59060789 / 59600000 | TPS 886.964 | ETA 00:10:07
Time 17:06:56 | Step 59069424 / 59600000 | TPS 863.472 | ETA 00:10:14
Time 17:07:06 | Step 59076598 / 59600000 | TPS 717.319 | ETA 00:12:09
Time 17:07:16 | Step 59084146 / 59600000 | TPS 754.726 | ETA 00:11:23
Time 17:07:26 | Step 59091060 / 59600000 | TPS 691.372 | ETA 00:12:16
Time 17:07:36 | Step 59099578 / 59600000 | TPS 851.769 | ETA 00:09:47
Time 17:07:46 | Step 59109563 / 59600000 | TPS 998.477 | ETA 00:08:11
Time 17:07:56 | Step 59117954 / 59600000 | TPS 839.053 | ETA 00:09:34
Time 17:08:06 | Step 59124555 / 59600000 | TPS 660.089 | ETA 00:12:00
Time 17:08:16 | Step 59130501 / 59600000 | TPS 594.456 | ETA 00:13:09
Time 17:08:26 | Step 59136192 / 59600000 | TPS 569.056 | ETA 00:13:35
Time 17:08:36 | Step 59142225 / 59600000 | TPS 603.259 | ETA 00:12:38
Time 17:08:46 | Step 59148397 / 59600000 | TPS 617.131 | ETA 00:12:11
Time 17:08:56 | Step 59155063 / 59600000 | TPS 666.508 | ETA 00:11:07
Time 17:09:06 | Step 59161656 / 59600000 | TPS 659.246 | ETA 00:11:04
Time 17:09:16 | Step 59168904 / 59600000 | TPS 724.725 | ETA 00:09:54
Time 17:09:26 | Step 59175696 / 59600000 | TPS 679.149 | ETA 00:10:24
Time 17:09:36 | Step 59181674 / 59600000 | TPS 597.78 | ETA 00:11:39
Time 17:09:46 | Step 59187256 / 59600000 | TPS 558.134 | ETA 00:12:19
Time 17:09:56 | Step 59193127 / 59600000 | TPS 587.05 | ETA 00:11:33
Time 17:10:06 | Step 59199207 / 59600000 | TPS 607.982 | ETA 00:10:59
Time 17:10:16 | Step 59205401 / 59600000 | TPS 619.261 | ETA 00:10:37
Time 17:10:26 | Step 59211744 / 59600000 | TPS 634.294 | ETA 00:10:12
Time 17:10:36 | Step 59217282 / 59600000 | TPS 553.746 | ETA 00:11:31
Time 17:10:46 | Step 59222660 / 59600000 | TPS 537.726 | ETA 00:11:41
Time 17:10:56 | Step 59228342 / 59600000 | TPS 568.138 | ETA 00:10:54
Time 17:11:06 | Step 59234833 / 59600000 | TPS 649.084 | ETA 00:09:22
Time 17:11:16 | Step 59241170 / 59600000 | TPS 633.651 | ETA 00:09:26
Time 17:11:26 | Step 59247684 / 59600000 | TPS 651.35 | ETA 00:09:00
Time 17:11:36 | Step 59254915 / 59600000 | TPS 723.092 | ETA 00:07:57
Time 17:11:46 | Step 59261624 / 59600000 | TPS 670.848 | ETA 00:08:24
Time 17:11:56 | Step 59267980 / 59600000 | TPS 635.594 | ETA 00:08:42
Time 17:12:06 | Step 59274956 / 59600000 | TPS 697.541 | ETA 00:07:45
Time 17:12:16 | Step 59283695 / 59600000 | TPS 873.822 | ETA 00:06:01
Time 17:12:26 | Step 59292559 / 59600000 | TPS 886.387 | ETA 00:05:46
Time 17:12:36 | Step 59300463 / 59600000 | TPS 790.352 | ETA 00:06:18
Time 17:12:46 | Step 59309329 / 59600000 | TPS 886.527 | ETA 00:05:27
Time 17:12:56 | Step 59318829 / 59600000 | TPS 949.972 | ETA 00:04:55
Time 17:13:06 | Step 59327709 / 59600000 | TPS 887.944 | ETA 00:05:06
Time 17:13:16 | Step 59335005 / 59600000 | TPS 729.514 | ETA 00:06:03
Time 17:13:26 | Step 59341829 / 59600000 | TPS 682.333 | ETA 00:06:18
Time 17:13:36 | Step 59348897 / 59600000 | TPS 706.725 | ETA 00:05:55
Time 17:13:46 | Step 59355790 / 59600000 | TPS 689.21 | ETA 00:05:54
Time 17:13:56 | Step 59361799 / 59600000 | TPS 600.703 | ETA 00:06:36
Time 17:14:06 | Step 59368445 / 59600000 | TPS 664.583 | ETA 00:05:48
Time 17:14:16 | Step 59376748 / 59600000 | TPS 830.224 | ETA 00:04:28
Time 17:14:26 | Step 59385460 / 59600000 | TPS 871.146 | ETA 00:04:06
Time 17:14:36 | Step 59393245 / 59600000 | TPS 778.414 | ETA 00:04:25
Time 17:14:46 | Step 59400495 / 59600000 | TPS 724.894 | ETA 00:04:35
Time 17:14:56 | Step 59407336 / 59600000 | TPS 684.037 | ETA 00:04:41
Time 17:15:06 | Step 59414177 / 59600000 | TPS 684.066 | ETA 00:04:31
Time 17:15:16 | Step 59421497 / 59600000 | TPS 731.973 | ETA 00:04:03
Time 17:15:26 | Step 59430162 / 59600000 | TPS 866.442 | ETA 00:03:16
Time 17:15:36 | Step 59439966 / 59600000 | TPS 980.344 | ETA 00:02:43
Time 17:15:46 | Step 59449069 / 59600000 | TPS 910.25 | ETA 00:02:45
Time 17:15:56 | Step 59459010 / 59600000 | TPS 994.027 | ETA 00:02:21
Time 17:16:06 | Step 59469119 / 59600000 | TPS 1010.82 | ETA 00:02:09
Time 17:16:16 | Step 59478879 / 59600000 | TPS 975.948 | ETA 00:02:04
Time 17:16:26 | Step 59488273 / 59600000 | TPS 939.377 | ETA 00:01:58
Time 17:16:36 | Step 59497178 / 59600000 | TPS 890.481 | ETA 00:01:55
Time 17:16:46 | Step 59506991 / 59600000 | TPS 981.27 | ETA 00:01:34
Time 17:16:56 | Step 59516366 / 59600000 | TPS 937.402 | ETA 00:01:29
Time 17:17:06 | Step 59525450 / 59600000 | TPS 908.387 | ETA 00:01:22
Time 17:17:16 | Step 59534261 / 59600000 | TPS 881.019 | ETA 00:01:14
Time 17:17:26 | Step 59542428 / 59600000 | TPS 816.671 | ETA 00:01:10
Time 17:17:36 | Step 59551621 / 59600000 | TPS 919.237 | ETA 00:00:52
Time 17:17:46 | Step 59561301 / 59600000 | TPS 967.817 | ETA 00:00:39
Time 17:17:56 | Step 59570533 / 59600000 | TPS 923.168 | ETA 00:00:31
Time 17:18:06 | Step 59580307 / 59600000 | TPS 977.387 | ETA 00:00:20
Time 17:18:16 | Step 59592724 / 59600000 | TPS 1241.61 | ETA 00:00:05
Time 17:18:22 | Step 59600000 / 59600000 | TPS 1284.71 | ETA 00:00:00
Average TPS: 956.512
---------
-- Neighborlist stats:
1297929 normal updates / 595900 forced updates / 0 dangerous updates
n_neigh_min: 0 / n_neigh_max: 101 / n_neigh_avg: 40.9
shortest rebuild period: 17
-- Cell list stats:
Dimension: 38, 38, 38
n_min    : 0 / n_max: 47 / n_avg: 0.00801866
** run complete **
Number of frames: 1010
(1000, 96141) 1000
Timing sim and analysis 17.322
